/*--------------------------------*- C++ -*----------------------------------*\
| =========                 |                                                 |
| \\      /  F ield         | OpenFOAM: The Open Source CFD Toolbox           |
|  \\    /   O peration     | Version:  v2106                                 |
|   \\  /    A nd           | Website:  www.openfoam.com                      |
|    \\/     M anipulation  |                                                 |
\*---------------------------------------------------------------------------*/
FoamFile
{
    version     2.0;
    format      ascii;
    arch        "LSB;label=32;scalar=64";
    class       volScalarField;
    location    "1e-06/fluid";
    object      p;
}
// * * * * * * * * * * * * * * * * * * * * * * * * * * * * * * * * * * * * * //

dimensions      [1 -1 -2 0 0 0 0];

internalField   nonuniform List<scalar> 
80000
(
104487.155
103216.5722
102186.3749
102107.0875
102004.0943
101913.7156
101840.4009
101781.5418
101733.9026
101694.8342
101662.3483
101634.9806
101611.649
101591.5452
101574.0572
101558.715
101545.1526
101533.0818
101522.2723
101512.5384
101503.7288
101495.7191
101488.4061
101481.7034
101475.5383
101469.8491
101464.5831
101459.6952
101455.1464
101450.9029
101446.935
101443.2171
101439.7265
101436.443
101433.3489
101430.4284
101427.6676
101425.0536
101422.5753
101420.2225
101417.986
101415.8574
101413.8293
101411.8948
101410.0476
101408.2821
101406.593
101404.9757
101403.4255
101401.9387
101400.5114
101399.1402
101397.8219
101396.5537
101395.3327
101394.1565
101393.0227
101391.9291
101390.8737
101389.8546
101388.87
101387.9183
101386.9978
101386.1072
101385.2451
101384.4102
101383.6012
101382.8171
101382.0568
101381.3192
101380.6035
101379.9087
101379.2339
101378.5785
101377.9415
101377.3223
101376.7202
101376.1346
101375.5648
101375.0103
101374.4705
101373.9448
101373.4329
101372.9341
101372.4481
101371.9744
101371.5126
101371.0623
101370.6231
101370.1947
101369.7767
101369.3688
101368.9707
101368.5821
101368.2026
101367.832
101367.4701
101367.1166
101366.7713
101366.4338
101366.104
101365.7817
101365.4667
101365.1587
101364.8576
101364.5632
101364.2753
101363.9938
101363.7184
101363.449
101363.1855
101362.9277
101362.6755
101362.4288
101362.1873
101361.951
101361.7198
101361.4935
101361.272
101361.0553
101360.8431
101360.6355
101360.4322
101360.2333
101360.0385
101359.8479
101359.6613
101359.4787
101359.2999
101359.1249
101358.9536
101358.786
101358.6219
101358.4613
101358.3041
101358.1503
101357.9998
101357.8525
101357.7084
101357.5674
101357.4294
101357.2945
101357.1625
101357.0334
101356.9071
101356.7836
101356.6629
101356.5449
101356.4296
101356.3169
101356.2068
101356.0992
101355.9941
101355.8914
101355.7912
101355.6934
101355.5979
101355.5048
101355.4139
101355.3254
101355.239
101355.1548
101355.0729
101354.993
101354.9153
101354.8397
101354.7662
101354.6947
101354.6253
101354.5579
101354.4924
101354.429
101354.3675
101354.308
101354.2504
101354.1947
101354.141
101354.0891
101354.0392
101353.9911
101353.9449
101353.9007
101353.8583
101353.8178
101353.7792
101353.7425
101353.7078
101353.675
101353.6441
101353.6153
101353.5885
101353.5637
101353.5411
101353.5207
101353.5025
101353.4867
101353.4733
101353.4626
101353.4548
101353.4503
104426.4151
104406.0936
102786.2297
102161.6676
102012.5966
101911.2163
101835.8339
101777.1637
101730.185
101691.776
101659.8418
101632.912
101609.9228
101590.0866
101572.8087
101557.6329
101544.2035
101532.2399
101521.5176
101511.8553
101503.1049
101495.1446
101487.8731
101481.2054
101475.0701
101469.4064
101464.1624
101459.2935
101454.7612
101450.5321
101446.5769
101442.8701
101439.3893
101436.1145
101433.0282
101430.1147
101427.36
101424.7516
101422.2784
101419.9301
101417.6977
101415.5728
101413.5481
101411.6167
101409.7723
101408.0094
101406.3227
101404.7075
101403.1593
101401.6743
101400.2487
101398.8791
101397.5623
101396.2954
101395.0756
101393.9006
101392.7679
101391.6753
101390.6209
101389.6026
101388.6189
101387.6679
101386.7482
101385.8583
101384.9968
101384.1625
101383.3541
101382.5705
101381.8107
101381.0736
101380.3583
101379.6639
101378.9896
101378.3345
101377.6978
101377.079
101376.4772
101375.8919
101375.3224
101374.7682
101374.2286
101373.7032
101373.1915
101372.693
101372.2072
101371.7337
101371.2721
101370.822
101370.383
101369.9547
101369.5369
101369.1292
101368.7312
101368.3427
101367.9634
101367.593
101367.2312
101366.8778
101366.5325
101366.1952
101365.8655
101365.5433
101365.2284
101364.9205
101364.6195
101364.3252
101364.0374
101363.7559
101363.4806
101363.2113
101362.9479
101362.6902
101362.438
101362.1913
101361.9499
101361.7137
101361.4825
101361.2563
101361.0349
101360.8182
101360.6061
101360.3985
101360.1953
101359.9964
101359.8017
101359.6111
101359.4246
101359.242
101359.0632
101358.8883
101358.717
101358.5494
101358.3854
101358.2248
101358.0677
101357.9139
101357.7634
101357.6161
101357.472
101357.331
101357.1931
101357.0582
101356.9262
101356.7971
101356.6709
101356.5475
101356.4268
101356.3088
101356.1935
101356.0808
101355.9707
101355.8631
101355.758
101355.6554
101355.5552
101355.4574
101355.3619
101355.2688
101355.178
101355.0894
101355.0031
101354.9189
101354.8369
101354.7571
101354.6794
101354.6038
101354.5303
101354.4588
101354.3894
101354.322
101354.2566
101354.1931
101354.1316
101354.0721
101354.0145
101353.9588
101353.9051
101353.8532
101353.8033
101353.7552
101353.709
101353.6647
101353.6223
101353.5818
101353.5432
101353.5065
101353.4717
101353.4389
101353.408
101353.3791
101353.3523
101353.3275
101353.3048
101353.2842
101353.2659
101353.25
101353.2364
101353.2255
101353.2173
101353.2121
104403.1171
104402.5492
102957.6667
102158.258
102000.9393
101898.6664
101824.8107
101768.1091
101722.9044
101685.9357
101655.128
101629.0693
101606.7541
101587.4423
101570.576
101555.7262
101542.5575
101530.8043
101520.2534
101510.732
101502.0983
101494.2354
101487.0457
101480.4474
101474.371
101468.7578
101463.5573
101458.7261
101454.2265
101450.026
101446.0959
101442.4112
101438.9499
101435.6925
101432.6216
101429.7219
101426.9796
101424.3823
101421.919
101419.5798
101417.3555
101415.2381
101413.2201
101411.2948
101409.4561
101407.6983
101406.0163
101404.4054
101402.8613
101401.38
101399.9577
101398.5912
101397.2773
101396.0131
101394.7959
101393.6232
101392.4926
101391.4021
101390.3495
101389.3331
101388.3509
101387.4015
101386.4833
101385.5947
101384.7345
101383.9014
101383.0941
101382.3116
101381.5528
101380.8166
101380.1022
101379.4087
101378.7351
101378.0808
101377.4449
101376.8267
101376.2256
101375.6409
101375.072
101374.5183
101373.9792
101373.4543
101372.9431
101372.445
101371.9597
101371.4866
101371.0254
101370.5756
101370.137
101369.7091
101369.2916
101368.8842
101368.4865
101368.0983
101367.7192
101367.3491
101366.9875
101366.6344
101366.2894
101365.9522
101365.6228
101365.3008
101364.9861
101364.6784
101364.3776
101364.0834
101363.7958
101363.5145
101363.2393
101362.9702
101362.7069
101362.4493
101362.1973
101361.9507
101361.7095
101361.4734
101361.2423
101361.0162
101360.7949
101360.5783
101360.3663
101360.1588
101359.9557
101359.7569
101359.5623
101359.3718
101359.1853
101359.0028
101358.8241
101358.6492
101358.4781
101358.3105
101358.1465
101357.986
101357.829
101357.6752
101357.5248
101357.3776
101357.2336
101357.0926
101356.9548
101356.8199
101356.6879
101356.5589
101356.4327
101356.3093
101356.1887
101356.0708
101355.9555
101355.8428
101355.7327
101355.6252
101355.5202
101355.4176
101355.3174
101355.2196
101355.1242
101355.0311
101354.9403
101354.8517
101354.7654
101354.6813
101354.5994
101354.5196
101354.4419
101354.3663
101354.2928
101354.2213
101354.1519
101354.0845
101354.0191
101353.9556
101353.8942
101353.8346
101353.777
101353.7213
101353.6676
101353.6157
101353.5657
101353.5177
101353.4715
101353.4271
101353.3847
101353.3442
101353.3055
101353.2688
101353.2339
101353.201
101353.1701
101353.1411
101353.1141
101353.0892
101353.0663
101353.0456
101353.0271
101353.0109
101352.997
101352.9857
101352.9769
101352.9708
104373.4092
104095.1358
102352.8539
102086.2207
101962.745
101873.5817
101806.6187
101754.3224
101712.2057
101677.4921
101648.367
101623.5825
101602.2443
101583.6906
101567.4191
101553.0411
101540.2504
101528.8031
101518.5019
101509.1861
101500.7231
101493.0029
101485.9333
101479.4367
101473.4472
101467.9085
101462.7722
101457.9966
101453.5454
101449.3872
101445.4943
101441.8424
101438.4101
101435.1783
101432.1304
101429.2511
101426.5272
101423.9464
101421.498
101419.1722
101416.9601
101414.8537
101412.8458
101410.9297
101409.0993
101407.3492
101405.6742
101404.0698
101402.5316
101401.0558
101399.6386
101398.2768
101396.9673
101395.7071
101394.4936
101393.3243
101392.197
101391.1095
101390.0597
101389.0459
101388.0663
101387.1192
101386.203
101385.3165
101384.4582
101383.6269
101382.8213
101382.0404
101381.2831
101380.5483
101379.8353
101379.143
101378.4706
101377.8174
101377.1826
101376.5654
101375.9652
101375.3815
101374.8134
101374.2605
101373.7223
101373.1982
101372.6876
101372.1902
101371.7055
101371.233
101370.7724
101370.3232
101369.8851
101369.4577
101369.0407
101368.6338
101368.2365
101367.8488
101367.4701
101367.1004
101366.7392
101366.3864
101366.0417
101365.705
101365.3758
101365.0541
101364.7397
101364.4323
101364.1318
101363.8379
101363.5505
101363.2694
101362.9945
101362.7256
101362.4625
101362.2052
101361.9534
101361.707
101361.4659
101361.23
101360.9991
101360.7732
101360.552
101360.3356
101360.1237
101359.9164
101359.7134
101359.5147
101359.3203
101359.1299
101358.9436
101358.7612
101358.5826
101358.4078
101358.2368
101358.0693
101357.9055
101357.7451
101357.5881
101357.4344
101357.2841
101357.137
101356.993
101356.8522
101356.7144
101356.5796
101356.4477
101356.3187
101356.1926
101356.0693
101355.9487
101355.8309
101355.7156
101355.603
101355.493
101355.3855
101355.2805
101355.178
101355.0779
101354.9801
101354.8848
101354.7917
101354.7009
101354.6124
101354.5261
101354.442
101354.3601
101354.2803
101354.2027
101354.1271
101354.0536
101353.9822
101353.9128
101353.8454
101353.78
101353.7165
101353.6551
101353.5955
101353.5379
101353.4822
101353.4285
101353.3766
101353.3266
101353.2785
101353.2323
101353.1879
101353.1454
101353.1048
101353.0661
101353.0293
101352.9944
101352.9614
101352.9303
101352.9012
101352.8741
101352.849
101352.8259
101352.8049
101352.7861
101352.7695
101352.7552
101352.7433
101352.7337
101352.7267
103336.4711
102480.6922
102139.5143
102009.4143
101913.6274
101840.3859
101782.8842
101736.6244
101698.6086
101666.8112
101639.827
101616.651
101596.5431
101578.9447
101563.4244
101549.644
101537.3338
101526.2765
101516.2948
101507.2428
101498.9994
101491.4633
101484.5492
101478.1846
101472.3078
101466.8659
101461.8133
101457.1102
101452.7223
101448.6195
101444.7753
101441.1663
101437.772
101434.5741
101431.5563
101428.704
101426.0042
101423.4452
101421.0164
101418.7083
101416.5123
101414.4205
101412.4258
101410.5218
101408.7025
101406.9626
101405.2969
101403.701
101402.1707
101400.7021
101399.2917
101397.9361
101396.6323
101395.3774
101394.1689
101393.0042
101391.8812
101390.7977
101389.7517
101388.7413
101387.765
101386.8209
101385.9077
101385.0238
101384.1681
101383.3391
101382.5358
101381.757
101381.0016
101380.2688
101379.5575
101378.8669
101378.1961
101377.5444
101376.911
101376.2952
101375.6963
101375.1137
101374.5468
101373.995
101373.4578
101372.9347
101372.4251
101371.9286
101371.4447
101370.9731
101370.5132
101370.0648
101369.6274
101369.2007
101368.7844
101368.378
101367.9814
101367.5942
101367.2161
101366.8469
101366.4862
101366.1339
101365.7897
101365.4533
101365.1246
101364.8034
101364.4893
101364.1823
101363.8821
101363.5886
101363.3015
101363.0208
101362.7462
101362.4776
101362.2148
101361.9577
101361.7062
101361.4601
101361.2192
101360.9836
101360.7529
101360.5272
101360.3063
101360.09
101359.8784
101359.6712
101359.4685
101359.27
101359.0757
101358.8855
101358.6993
101358.5171
101358.3387
101358.1641
101357.9931
101357.8258
101357.6621
101357.5018
101357.345
101357.1915
101357.0412
101356.8942
101356.7504
101356.6096
101356.4719
101356.3372
101356.2055
101356.0766
101355.9506
101355.8274
101355.7069
101355.5891
101355.4739
101355.3614
101355.2515
101355.144
101355.0391
101354.9366
101354.8366
101354.7389
101354.6436
101354.5506
101354.4598
101354.3714
101354.2851
101354.2011
101354.1192
101354.0395
101353.9618
101353.8863
101353.8129
101353.7414
101353.6721
101353.6047
101353.5393
101353.4759
101353.4144
101353.3549
101353.2972
101353.2415
101353.1878
101353.1358
101353.0858
101353.0377
101352.9914
101352.947
101352.9045
101352.8638
101352.825
101352.7881
101352.7531
101352.7199
101352.6887
101352.6595
101352.6321
101352.6068
101352.5835
101352.5622
101352.543
101352.526
101352.5111
101352.4985
101352.4881
101352.4801
102147.2099
102109.8028
102013.7567
101930.0961
101860.5672
101803.2567
101755.8499
101716.2791
101682.8871
101654.403
101629.8621
101608.5296
101589.8385
101573.3454
101558.6989
101545.6173
101533.8717
101523.2749
101513.672
101504.9341
101496.953
101489.6376
101482.9103
101476.7048
101470.9644
101465.6398
101460.6887
101456.0739
101451.7631
101447.7278
101443.9431
101440.3867
101437.039
101433.8825
101430.9017
101428.0825
101425.4125
101422.8802
101420.4755
101418.1893
101416.0131
101413.9393
101411.961
101410.072
101408.2664
101406.539
101404.8848
101403.2995
101401.779
101400.3194
101398.9173
101397.5693
101396.2727
101395.0244
101393.822
101392.6631
101391.5454
101390.4669
101389.4255
101388.4195
101387.4472
101386.5069
101385.5973
101384.7168
101383.8641
101383.0381
101382.2376
101381.4614
101380.7086
101379.9781
101379.269
101378.5804
101377.9116
101377.2618
101376.6302
101376.016
101375.4187
101374.8377
101374.2722
101373.7218
101373.1859
101372.664
101372.1556
101371.6602
101371.1774
101370.7068
101370.2479
101369.8004
101369.3639
101368.9381
101368.5225
101368.117
101367.7211
101367.3346
101366.9572
101366.5886
101366.2286
101365.8768
101365.5332
101365.1974
101364.8693
101364.5485
101364.2349
101363.9284
101363.6287
101363.3356
101363.0489
101362.7686
101362.4944
101362.2262
101361.9637
101361.707
101361.4558
101361.21
101360.9695
101360.7341
101360.5038
101360.2783
101360.0577
101359.8417
101359.6303
101359.4234
101359.2209
101359.0226
101358.8285
101358.6385
101358.4526
101358.2705
101358.0923
101357.9179
101357.7472
101357.5801
101357.4165
101357.2564
101357.0997
101356.9463
101356.7962
101356.6494
101356.5057
101356.3651
101356.2275
101356.0929
101355.9613
101355.8325
101355.7066
101355.5835
101355.4631
101355.3454
101355.2304
101355.1179
101355.0081
101354.9007
101354.7959
101354.6935
101354.5935
101354.4959
101354.4007
101354.3077
101354.2171
101354.1287
101354.0425
101353.9585
101353.8766
101353.797
101353.7194
101353.6439
101353.5705
101353.4991
101353.4297
101353.3624
101353.297
101353.2336
101353.1721
101353.1126
101353.055
101352.9992
101352.9454
101352.8935
101352.8435
101352.7953
101352.7489
101352.7045
101352.6619
101352.6211
101352.5822
101352.5452
101352.51
101352.4768
101352.4454
101352.4159
101352.3883
101352.3627
101352.3391
101352.3174
101352.2978
101352.2803
101352.2648
101352.2515
101352.2403
101352.2312
101983.7797
101960.0239
101910.7908
101858.2697
101809.2686
101765.6882
101727.6403
101694.6017
101665.8872
101640.8354
101618.8689
101599.504
101582.3409
101567.051
101553.3636
101541.0545
101529.9372
101519.8559
101510.6793
101502.2967
101494.6138
101487.5502
101481.0368
101475.0141
101469.4306
101464.2417
101459.4081
101454.8958
101450.6746
101446.7181
101443.0028
101439.5078
101436.2147
101433.1069
101430.1695
101427.3892
101424.7541
101422.2534
101419.8772
101417.6167
101415.4639
101413.4114
101411.4525
101409.5812
101407.7918
101406.0792
101404.4387
101402.866
101401.357
101399.9081
101398.5158
101397.177
101395.8888
101394.6484
101393.4534
101392.3013
101391.1899
101390.1173
101389.0814
101388.0806
101387.1131
101386.1774
101385.272
101384.3955
101383.5466
101382.7241
101381.9269
101381.1539
101380.404
101379.6762
101378.9698
101378.2838
101377.6173
101376.9697
101376.3402
101375.7281
101375.1327
101374.5534
101373.9897
101373.4409
101372.9065
101372.3861
101371.8791
101371.3851
101370.9036
101370.4342
101369.9764
101369.5301
101369.0946
101368.6698
101368.2552
101367.8506
101367.4556
101367.0699
101366.6933
101366.3255
101365.9663
101365.6153
101365.2723
101364.9372
101364.6097
101364.2895
101363.9766
101363.6706
101363.3714
101363.0788
101362.7927
101362.5128
101362.2391
101361.9713
101361.7093
101361.453
101361.2022
101360.9568
101360.7167
101360.4817
101360.2517
101360.0266
101359.8062
101359.5906
101359.3795
101359.1729
101358.9706
101358.7726
101358.5788
101358.3891
101358.2034
101358.0216
101357.8436
101357.6694
101357.4989
101357.332
101357.1686
101357.0087
101356.8522
101356.699
101356.5491
101356.4024
101356.2589
101356.1184
101355.981
101355.8466
101355.7151
101355.5865
101355.4607
101355.3377
101355.2174
101355.0999
101354.9849
101354.8726
101354.7629
101354.6556
101354.5509
101354.4486
101354.3487
101354.2512
101354.156
101354.0632
101353.9726
101353.8843
101353.7981
101353.7142
101353.6324
101353.5528
101353.4753
101353.3998
101353.3264
101353.2551
101353.1858
101353.1184
101353.0531
101352.9897
101352.9282
101352.8687
101352.8111
101352.7554
101352.7015
101352.6496
101352.5995
101352.5512
101352.5049
101352.4603
101352.4176
101352.3768
101352.3378
101352.3006
101352.2653
101352.2318
101352.2003
101352.1705
101352.1427
101352.1168
101352.0928
101352.0708
101352.0507
101352.0326
101352.0165
101352.0024
101351.9903
101351.9803
101873.8581
101859.5871
101831.1797
101797.2931
101762.7684
101729.9708
101699.868
101672.7038
101648.3787
101626.6513
101607.2385
101589.8618
101574.2662
101560.2261
101547.5453
101536.0546
101525.6085
101516.0818
101507.3669
101499.3713
101492.0148
101485.2281
101478.9509
101473.1309
101467.7222
101462.6845
101457.9825
101453.5852
101449.4649
101445.5971
101441.9603
101438.5349
101435.3036
101432.251
101429.3629
101426.627
101424.0318
101421.567
101419.2233
101416.9923
101414.8663
101412.8381
101410.9015
101409.0505
101407.2797
101405.5842
101403.9594
101402.4011
101400.9054
101399.4688
101398.0879
101396.7597
101395.4812
101394.2499
101393.0633
101391.919
101390.815
101389.7492
101388.7197
101387.7249
101386.763
101385.8325
101384.932
101384.0601
101383.2156
101382.3972
101381.6039
101380.8344
101380.088
101379.3635
101378.6601
101377.9769
101377.3132
101376.6682
101376.0411
101375.4313
101374.8381
101374.261
101373.6992
101373.1524
101372.6198
101372.1011
101371.5957
101371.1032
101370.6232
101370.1552
101369.6989
101369.2538
101368.8196
101368.3959
101367.9825
101367.5789
101367.185
101366.8003
101366.4247
101366.0578
101365.6994
101365.3492
101365.0071
101364.6727
101364.3459
101364.0265
101363.7142
101363.4089
101363.1103
101362.8184
101362.5328
101362.2535
101361.9803
101361.7131
101361.4516
101361.1958
101360.9455
101360.7005
101360.4608
101360.2262
101359.9966
101359.7719
101359.5519
101359.3367
101359.1259
101358.9196
101358.7177
101358.52
101358.3265
101358.1371
101357.9517
101357.7702
101357.5925
101357.4185
101357.2483
101357.0816
101356.9184
101356.7588
101356.6025
101356.4495
101356.2998
101356.1533
101356.01
101355.8697
101355.7325
101355.5982
101355.4669
101355.3385
101355.2129
101355.09
101354.9699
101354.8525
101354.7377
101354.6255
101354.5159
101354.4088
101354.3041
101354.202
101354.1022
101354.0048
101353.9097
101353.8169
101353.7264
101353.6382
101353.5521
101353.4683
101353.3866
101353.307
101353.2295
101353.1542
101353.0808
101353.0095
101352.9402
101352.8729
101352.8076
101352.7442
101352.6828
101352.6232
101352.5656
101352.5099
101352.456
101352.404
101352.3539
101352.3056
101352.2592
101352.2146
101352.1718
101352.1308
101352.0917
101352.0544
101352.0189
101351.9852
101351.9534
101351.9234
101351.8953
101351.8691
101351.8447
101351.8222
101351.8016
101351.7829
101351.7662
101351.7513
101351.7384
101351.7274
101796.0571
101787.1845
101769.3793
101746.6576
101721.9808
101697.2523
101673.5467
101651.3894
101630.9748
101612.3134
101595.3207
101579.8698
101565.8196
101553.0301
101541.3694
101530.7171
101520.9649
101512.0164
101503.7865
101496.2
101489.1906
101482.6999
101476.6766
101471.0752
101465.8556
101460.9824
101456.4239
101452.1523
101448.1426
101444.3724
101440.822
101437.4733
101434.3105
101431.319
101428.4858
101425.7991
101423.2482
101420.8235
101418.5161
101416.3181
101414.222
101412.2211
101410.3094
101408.4812
101406.7313
101405.0549
101403.4478
101401.9057
101400.425
101399.0023
101397.6342
101396.3178
101395.0504
101393.8293
101392.6522
101391.5168
101390.421
101389.3629
101388.3407
101387.3526
101386.397
101385.4725
101384.5776
101383.7109
101382.8713
101382.0576
101381.2686
101380.5033
101379.7607
101379.0399
101378.3399
101377.6601
101376.9995
101376.3574
101375.7331
101375.1259
101374.5353
101373.9605
101373.401
101372.8563
101372.3258
101371.809
101371.3055
101370.8148
101370.3364
101369.8701
101369.4152
101368.9716
101368.5388
101368.1165
101367.7043
101367.302
101366.9092
101366.5257
101366.1511
101365.7853
101365.4279
101365.0787
101364.7375
101364.404
101364.078
101363.7594
101363.4479
101363.1433
101362.8455
101362.5542
101362.2694
101361.9907
101361.7181
101361.4515
101361.1906
101360.9353
101360.6855
101360.4411
101360.2019
101359.9677
101359.7386
101359.5143
101359.2948
101359.0799
101358.8696
101358.6637
101358.4622
101358.2649
101358.0717
101357.8826
101357.6975
101357.5163
101357.3389
101357.1653
101356.9953
101356.8289
101356.666
101356.5066
101356.3506
101356.1979
101356.0484
101355.9021
101355.759
101355.619
101355.482
101355.3479
101355.2168
101355.0885
101354.9631
101354.8404
101354.7205
101354.6032
101354.4886
101354.3765
101354.2671
101354.1601
101354.0556
101353.9535
101353.8539
101353.7566
101353.6616
101353.569
101353.4786
101353.3904
101353.3045
101353.2207
101353.1391
101353.0596
101352.9822
101352.9069
101352.8336
101352.7623
101352.6931
101352.6258
101352.5605
101352.4971
101352.4357
101352.3762
101352.3186
101352.2628
101352.209
101352.1569
101352.1067
101352.0584
101352.0119
101351.9672
101351.9243
101351.8832
101351.8439
101351.8065
101351.7708
101351.7369
101351.7049
101351.6746
101351.6462
101351.6196
101351.5948
101351.5719
101351.5507
101351.5315
101351.514
101351.4984
101351.4846
101351.4727
101738.2209
101732.4082
101720.5368
101704.7097
101686.7096
101667.8976
101649.1942
101631.1628
101614.1112
101598.1794
101583.4032
101569.7576
101557.1844
101545.6096
101534.9536
101525.1369
101516.0836
101507.7228
101499.9898
101492.8255
101486.1766
101479.9952
101474.2384
101468.8677
101463.8486
101459.1503
101454.745
101450.608
101446.7171
101443.052
101439.5949
101436.3293
101433.2407
101430.3156
101427.5421
101424.9091
101422.4067
101420.0258
101417.7582
101415.5962
101413.5329
101411.5621
101409.6778
101407.8746
101406.1477
101404.4926
101402.9049
101401.3807
101399.9166
101398.5092
101397.1553
101395.852
101394.5968
101393.3871
101392.2206
101391.095
101390.0084
101388.9589
101387.9447
101386.9641
101386.0156
101385.0977
101384.209
101383.3481
101382.514
101381.7054
101380.9213
101380.1606
101379.4223
101378.7056
101378.0095
101377.3333
101376.6761
101376.0373
101375.4162
101374.8119
101374.2241
101373.652
101373.095
101372.5527
101372.0245
101371.5099
101371.0085
101370.5197
101370.0433
101369.5787
101369.1256
101368.6836
101368.2524
101367.8316
101367.4209
101367.0199
101366.6284
101366.2462
101365.8728
101365.5081
101365.1518
101364.8037
101364.4635
101364.131
101363.806
101363.4883
101363.1777
101362.8739
101362.5769
101362.2864
101362.0023
101361.7244
101361.4525
101361.1865
101360.9262
101360.6716
101360.4224
101360.1785
101359.9399
101359.7063
101359.4777
101359.2539
101359.0349
101358.8205
101358.6106
101358.4051
101358.204
101358.0071
101357.8144
101357.6256
101357.4409
101357.2601
101357.083
101356.9097
101356.7401
101356.574
101356.4114
101356.2523
101356.0965
101355.9441
101355.7949
101355.6489
101355.506
101355.3662
101355.2294
101355.0956
101354.9647
101354.8366
101354.7114
101354.5889
101354.4692
101354.3521
101354.2376
101354.1258
101354.0164
101353.9096
101353.8053
101353.7034
101353.6039
101353.5067
101353.4119
101353.3193
101353.2291
101353.141
101353.0552
101352.9715
101352.89
101352.8105
101352.7332
101352.658
101352.5847
101352.5135
101352.4443
101352.3771
101352.3119
101352.2485
101352.1871
101352.1276
101352.07
101352.0142
101351.9603
101351.9083
101351.858
101351.8096
101351.763
101351.7182
101351.6752
101351.634
101351.5946
101351.557
101351.5211
101351.487
101351.4547
101351.4242
101351.3954
101351.3684
101351.3432
101351.3198
101351.2981
101351.2782
101351.2601
101351.2438
101351.2291
101351.2162
101693.4647
101689.4615
101681.1547
101669.7447
101656.3251
101641.8337
101626.9878
101612.2896
101598.0639
101584.503
101571.7063
101559.7111
101548.5153
101538.0927
101528.4036
101519.4013
101511.0368
101503.2609
101496.0267
101489.2894
101483.0077
101477.1433
101471.6612
101466.5294
101461.719
101457.2034
101452.9589
101448.9636
101445.1981
101441.6444
101438.2863
101435.1092
101432.0997
101429.2457
101426.5361
101423.9607
101421.5104
101419.1768
101416.952
101414.829
101412.8013
101410.8629
101409.0083
101407.2324
101405.5305
101403.8983
101402.3318
101400.8272
101399.3811
101397.9904
101396.652
101395.3631
101394.1212
101392.9239
101391.7689
101390.6542
101389.5777
101388.5376
101387.5321
101386.5598
101385.619
101384.7083
101383.8264
101382.972
101382.1439
101381.341
101380.5622
101379.8065
101379.073
101378.3608
101377.6689
101376.9968
101376.3434
101375.7082
101375.0905
101374.4895
101373.9047
101373.3356
101372.7814
101372.2417
101371.716
101371.2039
101370.7047
101370.2182
101369.7438
101369.2812
101368.83
101368.3899
101367.9604
101367.5412
101367.1321
101366.7326
101366.3426
101365.9618
101365.5897
101365.2263
101364.8713
101364.5243
101364.1853
101363.8539
101363.5299
101363.2132
101362.9035
101362.6007
101362.3046
101362.0149
101361.7316
101361.4545
101361.1834
101360.9181
101360.6586
101360.4046
101360.1561
101359.9129
101359.6749
101359.4419
101359.2138
101358.9906
101358.7721
101358.5582
101358.3489
101358.1439
101357.9432
101357.7468
101357.5545
101357.3662
101357.1819
101357.0014
101356.8247
101356.6518
101356.4825
101356.3168
101356.1545
101355.9957
101355.8403
101355.6881
101355.5392
101355.3935
101355.2509
101355.1114
101354.9749
101354.8413
101354.7106
101354.5828
101354.4578
101354.3355
101354.216
101354.0991
101353.9848
101353.8732
101353.764
101353.6574
101353.5532
101353.4515
101353.3521
101353.2551
101353.1604
101353.068
101352.9778
101352.8899
101352.8042
101352.7206
101352.6392
101352.5599
101352.4826
101352.4075
101352.3343
101352.2632
101352.194
101352.1269
101352.0616
101351.9983
101351.9369
101351.8774
101351.8198
101351.764
101351.7101
101351.658
101351.6078
101351.5593
101351.5126
101351.4677
101351.4246
101351.3833
101351.3437
101351.3059
101351.2698
101351.2355
101351.2029
101351.1721
101351.1429
101351.1156
101351.0899
101351.066
101351.0438
101351.0233
101351.0046
101350.9874
101350.972
101350.9582
101657.7168
101654.8405
101648.7984
101640.3225
101630.1036
101618.7839
101606.9007
101594.8679
101582.9831
101571.4472
101560.3864
101549.872
101539.9365
101530.5863
101521.8105
101513.5876
101505.8898
101498.6859
101491.9438
101485.6313
101479.7175
101474.1728
101468.9693
101464.0812
101459.4846
101455.1572
101451.0787
101447.2306
101443.5956
101440.1581
101436.9038
101433.8196
101430.8934
101428.1144
101425.4723
101422.9581
101420.5631
101418.2796
101416.1005
101414.019
101412.0293
101410.1256
101408.3028
101406.5561
101404.881
101403.2735
101401.7297
101400.2462
101398.8196
101397.4468
101396.1251
101394.8518
101393.6243
101392.4404
101391.2979
101390.1948
101389.1292
101388.0993
101387.1034
101386.14
101385.2076
101384.3047
101383.4302
101382.5827
101381.7612
101380.9644
101380.1915
101379.4413
101378.7129
101378.0056
101377.3184
101376.6506
101376.0014
101375.3702
101374.7562
101374.1588
101373.5773
101373.0114
101372.4602
101371.9235
101371.4005
101370.891
101370.3943
101369.9102
101369.4381
101368.9777
101368.5286
101368.0904
101367.6628
101367.2454
101366.838
101366.4403
101366.0519
101365.6725
101365.3019
101364.9399
101364.5862
101364.2406
101363.9027
101363.5725
101363.2497
101362.9341
101362.6255
101362.3237
101362.0285
101361.7399
101361.4575
101361.1812
101360.9109
101360.6465
101360.3877
101360.1345
101359.8867
101359.6442
101359.4068
101359.1745
101358.9471
101358.7245
101358.5066
101358.2933
101358.0844
101357.88
101357.6798
101357.4839
101357.292
101357.1042
101356.9203
101356.7403
101356.5641
101356.3915
101356.2226
101356.0573
101355.8954
101355.737
101355.5819
101355.4301
101355.2815
101355.1361
101354.9938
101354.8545
101354.7183
101354.585
101354.4546
101354.327
101354.2023
101354.0802
101353.9609
101353.8443
101353.7302
101353.6187
101353.5098
101353.4034
101353.2994
101353.1978
101353.0986
101353.0018
101352.9072
101352.815
101352.725
101352.6372
101352.5516
101352.4681
101352.3868
101352.3076
101352.2304
101352.1554
101352.0823
101352.0112
101351.9422
101351.875
101351.8099
101351.7466
101351.6852
101351.6257
101351.5681
101351.5123
101351.4584
101351.4063
101351.3559
101351.3074
101351.2607
101351.2157
101351.1724
101351.131
101351.0912
101351.0532
101351.0169
101350.9824
101350.9495
101350.9184
101350.8889
101350.8611
101350.8351
101350.8107
101350.7879
101350.7668
101350.7474
101350.7295
101350.7133
101350.6986
101628.4418
101626.302
101621.7661
101615.3052
101607.3692
101598.4015
101588.7988
101578.8894
101568.9285
101559.1037
101549.5461
101540.3418
101531.5428
101523.1759
101515.25
101507.7619
101500.6999
101494.0472
101487.7836
101481.8878
101476.3374
101471.1107
101466.1861
101461.5433
101457.1629
101453.0267
101449.1178
101445.4203
101441.9195
101438.602
101435.455
101432.4672
101429.6278
101426.9269
101424.3555
101421.9052
101419.5683
101417.3375
101415.2065
101413.1689
101411.2193
101409.3523
101407.5632
101405.8474