/*--------------------------------*- C++ -*----------------------------------*\
| =========                 |                                                 |
| \\      /  F ield         | OpenFOAM: The Open Source CFD Toolbox           |
|  \\    /   O peration     | Version:  v2106                                 |
|   \\  /    A nd           | Website:  www.openfoam.com                      |
|    \\/     M anipulation  |                                                 |
\*---------------------------------------------------------------------------*/
FoamFile
{
    version     2.0;
    format      ascii;
    arch        "LSB;label=32;scalar=64";
    class       volScalarField;
    location    "1e-06/fluid";
    object      p_rgh;
}
// * * * * * * * * * * * * * * * * * * * * * * * * * * * * * * * * * * * * * //

dimensions      [1 -1 -2 0 0 0 0];

internalField   nonuniform List<scalar> 
80000
(
104487.1555
103216.6327
102186.4918
102107.2046
102004.2114
101913.8327
101840.518
101781.6589
101734.0198
101694.9513
101662.4655
101635.0977
101611.7661
101591.6623
101574.1743
101558.8321
101545.2698
101533.1989
101522.3894
101512.6555
101503.8459
101495.8363
101488.5233
101481.8205
101475.6554
101469.9662
101464.7002
101459.8124
101455.2636
101451.02
101447.0522
101443.3343
101439.8436
101436.5601
101433.466
101430.5456
101427.7847
101425.1708
101422.6925
101420.3397
101418.1031
101415.9746
101413.9465
101412.0119
101410.1648
101408.3992
101406.7102
101405.0928
101403.5427
101402.0558
101400.6285
101399.2573
101397.939
101396.6708
101395.4498
101394.2736
101393.1398
101392.0462
101390.9908
101389.9717
101388.9871
101388.0354
101387.115
101386.2244
101385.3623
101384.5273
101383.7184
101382.9343
101382.1739
101381.4364
101380.7206
101380.0258
101379.3511
101378.6956
101378.0586
101377.4394
101376.8373
101376.2517
101375.6819
101375.1274
101374.5876
101374.062
101373.55
101373.0513
101372.5652
101372.0915
101371.6297
101371.1794
101370.7403
101370.3118
101369.8939
101369.486
101369.0878
101368.6992
101368.3197
101367.9492
101367.5873
101367.2338
101366.8884
101366.5509
101366.2212
101365.8989
101365.5838
101365.2759
101364.9748
101364.6804
101364.3925
101364.1109
101363.8355
101363.5662
101363.3027
101363.0449
101362.7927
101362.5459
101362.3044
101362.0682
101361.8369
101361.6106
101361.3892
101361.1724
101360.9603
101360.7526
101360.5494
101360.3504
101360.1557
101359.9651
101359.7785
101359.5958
101359.4171
101359.2421
101359.0708
101358.9031
101358.739
101358.5784
101358.4213
101358.2674
101358.1169
101357.9696
101357.8255
101357.6845
101357.5465
101357.4116
101357.2796
101357.1505
101357.0242
101356.9008
101356.7801
101356.6621
101356.5467
101356.434
101356.3239
101356.2163
101356.1112
101356.0086
101355.9084
101355.8105
101355.7151
101355.6219
101355.5311
101355.4425
101355.3561
101355.272
101355.19
101355.1102
101355.0325
101354.9569
101354.8833
101354.8119
101354.7424
101354.675
101354.6096
101354.5461
101354.4847
101354.4251
101354.3675
101354.3119
101354.2581
101354.2062
101354.1563
101354.1082
101354.0621
101354.0178
101353.9754
101353.9349
101353.8963
101353.8597
101353.8249
101353.7921
101353.7613
101353.7324
101353.7056
101353.6809
101353.6582
101353.6378
101353.6196
101353.6038
101353.5904
101353.5798
101353.5719
101353.5674
104426.4153
104406.0938
102786.5127
102162.019
102012.948
101911.5677
101836.1853
101777.5151
101730.5364
101692.1274
101660.1932
101633.2634
101610.2742
101590.438
101573.1601
101557.9843
101544.555
101532.5913
101521.869
101512.2067
101503.4563
101495.4961
101488.2245
101481.5568
101475.4215
101469.7578
101464.5138
101459.6449
101455.1127
101450.8835
101446.9283
101443.2216
101439.7407
101436.4659
101433.3796
101430.4661
101427.7114
101425.1031
101422.6298
101420.2815
101418.0491
101415.9242
101413.8995
101411.9681
101410.1237
101408.3608
101406.6741
101405.0589
101403.5108
101402.0258
101400.6001
101399.2305
101397.9137
101396.6468
101395.4271
101394.252
101393.1193
101392.0267
101390.9723
101389.9541
101388.9703
101388.0193
101387.0996
101386.2097
101385.3482
101384.5139
101383.7055
101382.922
101382.1621
101381.425
101380.7097
101380.0154
101379.341
101378.6859
101378.0493
101377.4304
101376.8287
101376.2433
101375.6738
101375.1196
101374.5801
101374.0547
101373.5429
101373.0444
101372.5586
101372.0851
101371.6235
101371.1734
101370.7344
101370.3062
101369.8883
101369.4806
101369.0826
101368.6941
101368.3148
101367.9444
101367.5826
101367.2292
101366.884
101366.5466
101366.2169
101365.8948
101365.5798
101365.2719
101364.9709
101364.6766
101364.3888
101364.1073
101363.832
101363.5627
101363.2993
101363.0416
101362.7895
101362.5428
101362.3014
101362.0651
101361.834
101361.6077
101361.3863
101361.1696
101360.9575
101360.7499
101360.5467
101360.3478
101360.1531
101359.9625
101359.776
101359.5934
101359.4147
101359.2397
101359.0685
101358.9008
101358.7368
101358.5762
101358.4191
101358.2653
101358.1148
101357.9675
101357.8234
101357.6825
101357.5445
101357.4096
101357.2776
101357.1485
101357.0223
101356.8989
101356.7782
101356.6602
101356.5449
101356.4322
101356.3221
101356.2145
101356.1094
101356.0068
101355.9066
101355.8088
101355.7134
101355.6202
101355.5294
101355.4408
101355.3545
101355.2703
101355.1884
101355.1085
101355.0309
101354.9553
101354.8817
101354.8103
101354.7408
101354.6734
101354.608
101354.5445
101354.4831
101354.4235
101354.3659
101354.3103
101354.2565
101354.2046
101354.1547
101354.1066
101354.0604
101354.0162
101353.9738
101353.9333
101353.8946
101353.8579
101353.8232
101353.7903
101353.7595
101353.7306
101353.7037
101353.6789
101353.6562
101353.6357
101353.6174
101353.6014
101353.5879
101353.5769
101353.5687
101353.5635
104403.1175
104402.5496
102958.0883
102158.8438
102001.525
101899.2522
101825.3964
101768.6948
101723.4902
101686.5215
101655.7137
101629.6551
101607.3398
101588.028
101571.1617
101556.3119
101543.1432
101531.39
101520.8392
101511.3177
101502.6841
101494.8212
101487.6315
101481.0331
101474.9568
101469.3436
101464.1431
101459.3118
101454.8123
101450.6117
101446.6816
101442.997
101439.5357
101436.2782
101433.2074
101430.3076
101427.5653
101424.968
101422.5048
101420.1655
101417.9412
101415.8238
101413.8058
101411.8806
101410.0418
101408.284
101406.602
101404.9912
101403.447
101401.9657
101400.5435
101399.177
101397.8631
101396.5989
101395.3816
101394.2089
101393.0784
101391.9878
101390.9352
101389.9188
101388.9367
101387.9873
101387.069
101386.1804
101385.3202
101384.4871
101383.6798
101382.8973
101382.1385
101381.4024
101380.688
101379.9944
101379.3209
101378.6665
101378.0306
101377.4124
101376.8113
101376.2266
101375.6577
101375.104
101374.565
101374.0401
101373.5288
101373.0308
101372.5454
101372.0723
101371.6111
101371.1614
101370.7227
101370.2948
101369.8773
101369.4699
101369.0722
101368.684
101368.3049
101367.9348
101367.5733
101367.2201
101366.8751
101366.538
101366.2085
101365.8865
101365.5718
101365.2641
101364.9633
101364.6691
101364.3815
101364.1002
101363.825
101363.5559
101363.2926
101363.0351
101362.783
101362.5365
101362.2952
101362.0591
101361.828
101361.6019
101361.3806
101361.164
101360.952
101360.7445
101360.5414
101360.3426
101360.148
101359.9575
101359.771
101359.5885
101359.4099
101359.235
101359.0638
101358.8963
101358.7323
101358.5718
101358.4147
101358.261
101358.1105
101357.9633
101357.8193
101357.6784
101357.5405
101357.4056
101357.2737
101357.1446
101357.0185
101356.8951
101356.7744
101356.6565
101356.5412
101356.4286
101356.3185
101356.2109
101356.1059
101356.0033
101355.9031
101355.8054
101355.7099
101355.6168
101355.526
101355.4375
101355.3512
101355.267
101355.1851
101355.1053
101355.0276
101354.952
101354.8785
101354.8071
101354.7376
101354.6702
101354.6048
101354.5414
101354.4799
101354.4204
101354.3628
101354.3071
101354.2533
101354.2014
101354.1515
101354.1034
101354.0572
101354.0129
101353.9704
101353.9299
101353.8913
101353.8545
101353.8197
101353.7868
101353.7558
101353.7268
101353.6999
101353.6749
101353.6521
101353.6314
101353.6129
101353.5966
101353.5828
101353.5714
101353.5626
101353.5565
104373.4097
104095.2584
102353.6327
102087.0407
101963.5651
101874.4017
101807.4387
101755.1424
101713.0258
101678.3122
101649.1871
101624.4026
101603.0644
101584.5107
101568.2392
101553.8611
101541.0705
101529.6232
101519.322
101510.0061
101501.5431
101493.8229
101486.7534
101480.2568
101474.2673
101468.7286
101463.5922
101458.8166
101454.3655
101450.2073
101446.3143
101442.6624
101439.2301
101435.9984
101432.9504
101430.0712
101427.3472
101424.7665
101422.3181
101419.9922
101417.7802
101415.6738
101413.6659
101411.7497
101409.9194
101408.1693
101406.4943
101404.8899
101403.3517
101401.8759
101400.4587
101399.0969
101397.7873
101396.5271
101395.3136
101394.1444
101393.0171
101391.9295
101390.8798
101389.866
101388.8863
101387.9392
101387.0231
101386.1366
101385.2783
101384.4469
101383.6414
101382.8604
101382.1031
101381.3684
101380.6553
101379.963
101379.2907
101378.6375
101378.0026
101377.3855
101376.7853
101376.2015
101375.6335
101375.0806
101374.5424
101374.0182
101373.5077
101373.0103
101372.5256
101372.0531
101371.5925
101371.1433
101370.7052
101370.2778
101369.8608
101369.4538
101369.0566
101368.6688
101368.2902
101367.9204
101367.5593
101367.2065
101366.8618
101366.525
101366.1959
101365.8742
101365.5598
101365.2524
101364.9518
101364.6579
101364.3705
101364.0895
101363.8146
101363.5457
101363.2826
101363.0252
101362.7734
101362.527
101362.286
101362.05
101361.8192
101361.5932
101361.3721
101361.1556
101360.9438
101360.7364
101360.5335
101360.3348
101360.1403
101359.9499
101359.7636
101359.5812
101359.4027
101359.2279
101359.0568
101358.8894
101358.7255
101358.5651
101358.4081
101358.2545
101358.1041
101357.957
101357.8131
101357.6722
101357.5344
101357.3996
101357.2678
101357.1388
101357.0127
101356.8894
101356.7688
101356.6509
101356.5357
101356.4231
101356.3131
101356.2056
101356.1006
101355.998
101355.8979
101355.8002
101355.7048
101355.6118
101355.521
101355.4325
101355.3462
101355.2621
101355.1802
101355.1004
101355.0227
101354.9472
101354.8737
101354.8023
101354.7328
101354.6654
101354.6
101354.5366
101354.4751
101354.4156
101354.358
101354.3023
101354.2485
101354.1966
101354.1466
101354.0985
101354.0523
101354.008
101353.9655
101353.9249
101353.8862
101353.8494
101353.8144
101353.7814
101353.7504
101353.7213
101353.6941
101353.669
101353.646
101353.625
101353.6062
101353.5896
101353.5753
101353.5633
101353.5538
101353.5467
103337.0435
102481.6595
102140.5687
102010.4687
101914.6818
101841.4403
101783.9386
101737.6788
101699.663
101667.8656
101640.8814
101617.7054
101597.5975
101579.9991
101564.4788
101550.6984
101538.3882
101527.3309
101517.3492
101508.2972
101500.0538
101492.5177
101485.6036
101479.239
101473.3622
101467.9203
101462.8677
101458.1646
101453.7767
101449.6739
101445.8297
101442.2207
101438.8264
101435.6285
101432.6107
101429.7584
101427.0586
101424.4996
101422.0708
101419.7627
101417.5667
101415.4749
101413.4802
101411.5762
101409.7569
101408.017
101406.3513
101404.7554
101403.2251
101401.7565
101400.3461
101398.9905
101397.6867
101396.4318
101395.2233
101394.0586
101392.9356
101391.8521
101390.8061
101389.7957
101388.8194
101387.8753
101386.9621
101386.0782
101385.2225
101384.3935
101383.5902
101382.8114
101382.056
101381.3232
101380.6119
101379.9213
101379.2505
101378.5988
101377.9654
101377.3496
101376.7507
101376.1681
101375.6012
101375.0494
101374.5122
101373.9891
101373.4795
101372.983
101372.4991
101372.0275
101371.5676
101371.1192
101370.6818
101370.2551
101369.8388
101369.4324
101369.0358
101368.6486
101368.2705
101367.9013
101367.5406
101367.1883
101366.8441
101366.5077
101366.179
101365.8578
101365.5437
101365.2367
101364.9365
101364.643
101364.3559
101364.0752
101363.8006
101363.532
101363.2692
101363.0121
101362.7606
101362.5145
101362.2736
101362.038
101361.8073
101361.5816
101361.3607
101361.1444
101360.9328
101360.7256
101360.5229
101360.3244
101360.1301
101359.9399
101359.7537
101359.5715
101359.3931
101359.2185
101359.0475
101358.8802
101358.7165
101358.5562
101358.3994
101358.2459
101358.0956
101357.9486
101357.8048
101357.664
101357.5263
101357.3916
101357.2599
101357.131
101357.005
101356.8818
101356.7613
101356.6435
101356.5283
101356.4158
101356.3059
101356.1984
101356.0935
101355.991
101355.891
101355.7933
101355.698
101355.605
101355.5142
101355.4258
101355.3395
101355.2555
101355.1736
101355.0939
101355.0162
101354.9407
101354.8673
101354.7958
101354.7265
101354.6591
101354.5937
101354.5303
101354.4688
101354.4093
101354.3516
101354.2959
101354.2422
101354.1902
101354.1402
101354.0921
101354.0458
101354.0014
101353.9589
101353.9182
101353.8794
101353.8425
101353.8075
101353.7743
101353.7431
101353.7139
101353.6865
101353.6612
101353.6379
101353.6166
101353.5974
101353.5804
101353.5655
101353.5529
101353.5425
101353.5345
102148.4986
102111.0916
102015.0455
101931.3849
101861.8559
101804.5455
101757.1387
101717.5678
101684.1759
101655.6917
101631.1509
101609.8184
101591.1272
101574.6341
101559.9877
101546.9061
101535.1605
101524.5636
101514.9607
101506.2228
101498.2418
101490.9264
101484.1991
101477.9936
101472.2531
101466.9286
101461.9774
101457.3626
101453.0518
101449.0166
101445.2318
101441.6754
101438.3277
101435.1713
101432.1905
101429.3713
101426.7012
101424.169
101421.7643
101419.478
101417.3018
101415.2281
101413.2498
101411.3608
101409.5552
101407.8277
101406.1736
101404.5883
101403.0678
101401.6082
101400.206
101398.8581
101397.5614
101396.3132
101395.1108
101393.9519
101392.8342
101391.7556
101390.7142
101389.7083
101388.7359
101387.7957
101386.886
101386.0055
101385.1529
101384.3269
101383.5264
101382.7502
101381.9973
101381.2668
101380.5577
101379.8692
101379.2004
101378.5506
101377.9189
101377.3048
101376.7075
101376.1264
101375.561
101375.0106
101374.4747
101373.9528
101373.4444
101372.949
101372.4662
101371.9956
101371.5367
101371.0892
101370.6527
101370.2268
101369.8113
101369.4057
101369.0098
101368.6233
101368.2459
101367.8773
101367.5173
101367.1656
101366.822
101366.4862
101366.158
101365.8373
101365.5237
101365.2172
101364.9174
101364.6243
101364.3377
101364.0574
101363.7832
101363.5149
101363.2525
101362.9958
101362.7446
101362.4988
101362.2583
101362.0229
101361.7925
101361.5671
101361.3464
101361.1305
101360.9191
101360.7122
101360.5096
101360.3114
101360.1173
101359.9273
101359.7413
101359.5593
101359.3811
101359.2067
101359.0359
101358.8688
101358.7052
101358.5451
101358.3884
101358.2351
101358.085
101357.9381
101357.7944
101357.6538
101357.5163
101357.3817
101357.25
101357.1213
101356.9954
101356.8722
101356.7519
101356.6342
101356.5191
101356.4067
101356.2968
101356.1895
101356.0847
101355.9823
101355.8823
101355.7847
101355.6894
101355.5965
101355.5058
101355.4174
101355.3312
101355.2472
101355.1654
101355.0857
101355.0081
101354.9326
101354.8592
101354.7878
101354.7185
101354.6511
101354.5857
101354.5223
101354.4609
101354.4013
101354.3437
101354.288
101354.2342
101354.1823
101354.1322
101354.084
101354.0377
101353.9932
101353.9506
101353.9099
101353.871
101353.834
101353.7988
101353.7655
101353.7341
101353.7046
101353.6771
101353.6515
101353.6278
101353.6062
101353.5866
101353.569
101353.5536
101353.5402
101353.5291
101353.52
101985.3029
101961.547
101912.314
101859.7929
101810.7918
101767.2114
101729.1635
101696.1248
101667.4103
101642.3585
101620.3921
101601.0271
101583.864
101568.5742
101554.8868
101542.5776
101531.4604
101521.379
101512.2025
101503.8199
101496.137
101489.0734
101482.5599
101476.5373
101470.9538
101465.7648
101460.9312
101456.4189
101452.1977
101448.2412
101444.5259
101441.031
101437.7379
101434.63
101431.6926
101428.9124
101426.2773
101423.7765
101421.4003
101419.1398
101416.987
101414.9345
101412.9757
101411.1043
101409.3149
101407.6024
101405.9619
101404.3891
101402.8802
101401.4312
101400.039
101398.7002
101397.412
101396.1716
101394.9765
101393.8244
101392.713
101391.6404
101390.6046
101389.6037
101388.6362
101387.7005
101386.7951
101385.9186
101385.0697
101384.2473
101383.4501
101382.677
101381.9271
101381.1994
101380.4929
101379.8069
101379.1405
101378.4928
101377.8633
101377.2512
101376.6558
101376.0766
101375.5128
101374.964
101374.4297
101373.9093
101373.4023
101372.9082
101372.4267
101371.9573
101371.4996
101371.0532
101370.6178
101370.1929
101369.7783
101369.3737
101368.9787
101368.5931
101368.2165
101367.8487
101367.4894
101367.1384
101366.7955
101366.4604
101366.1328
101365.8127
101365.4997
101365.1937
101364.8945
101364.602
101364.3158
101364.036
101363.7622
101363.4945
101363.2325
101362.9762
101362.7254
101362.48
101362.2398
101362.0048
101361.7748
101361.5497
101361.3294
101361.1137
101360.9026
101360.696
101360.4938
101360.2958
101360.102
101359.9122
101359.7265
101359.5447
101359.3667
101359.1925
101359.022
101358.8551
101358.6917
101358.5318
101358.3753
101358.2221
101358.0722
101357.9255
101357.782
101357.6416
101357.5041
101357.3697
101357.2382
101357.1096
101356.9838
101356.8608
101356.7406
101356.623
101356.5081
101356.3958
101356.286
101356.1788
101356.074
101355.9717
101355.8719
101355.7744
101355.6792
101355.5863
101355.4957
101355.4074
101355.3213
101355.2374
101355.1556
101355.0759
101354.9984
101354.923
101354.8496
101354.7782
101354.7089
101354.6416
101354.5762
101354.5128
101354.4514
101354.3918
101354.3342
101354.2785
101354.2247
101354.1727
101354.1226
101354.0744
101354.028
101353.9835
101353.9408
101353.8999
101353.8609
101353.8238
101353.7884
101353.755
101353.7234
101353.6937
101353.6659
101353.6399
101353.6159
101353.5939
101353.5738
101353.5557
101353.5396
101353.5255
101353.5135
101353.5034
101875.6156
101861.3447
101832.9372
101799.0506
101764.526
101731.7283
101701.6255
101674.4613
101650.1363
101628.4089
101608.9961
101591.6194
101576.0237
101561.9836
101549.3029
101537.8122
101527.366
101517.8393
101509.1245
101501.1288
101493.7723
101486.9856
101480.7085
101474.8885
101469.4797
101464.442
101459.7401
101455.3427
101451.2224
101447.3547
101443.7178
101440.2924
101437.0611
101434.0085
101431.1205
101428.3845
101425.7893
101423.3245
101420.9809
101418.7498
101416.6238
101414.5957
101412.659
101410.808
101409.0373
101407.3417
101405.7169
101404.1586
101402.663
101401.2264
101399.8455
101398.5172
101397.2388
101396.0075
101394.8208
101393.6766
101392.5725
101391.5067
101390.4773
101389.4824
101388.5205
101387.59
101386.6895
101385.8177
101384.9731
101384.1548
101383.3614
101382.592
101381.8455
101381.121
101380.4176
101379.7345
101379.0708
101378.4257
101377.7987
101377.1889
101376.5957
101376.0185
101375.4568
101374.9099
101374.3774
101373.8586
101373.3533
101372.8608
101372.3808
101371.9128
101371.4564
101371.0113
101370.5771
101370.1535
101369.74
101369.3365
101368.9425
101368.5578
101368.1822
101367.8153
101367.4569
101367.1068
101366.7646
101366.4303
101366.1035
101365.784
101365.4718
101365.1664
101364.8679
101364.5759
101364.2904
101364.0111
101363.7379
101363.4706
101363.2092
101362.9533
101362.703
101362.458
101362.2183
101361.9837
101361.7541
101361.5294
101361.3095
101361.0942
101360.8835
101360.6772
101360.4752
101360.2776
101360.0841
101359.8947
101359.7092
101359.5277
101359.35
101359.1761
101359.0058
101358.8391
101358.676
101358.5163
101358.36
101358.2071
101358.0574
101357.9109
101357.7675
101357.6273
101357.49
101357.3558
101357.2245
101357.096
101356.9704
101356.8476
101356.7274
101356.61
101356.4952
101356.383
101356.2734
101356.1663
101356.0617
101355.9595
101355.8597
101355.7623
101355.6672
101355.5745
101355.484
101355.3957
101355.3097
101355.2258
101355.1441
101355.0646
101354.9871
101354.9117
101354.8384
101354.7671
101354.6978
101354.6305
101354.5651
101354.5017
101354.4403
101354.3808
101354.3232
101354.2674
101354.2136
101354.1616
101354.1114
101354.0632
101354.0167
101353.9721
101353.9293
101353.8883
101353.8492
101353.8119
101353.7764
101353.7428
101353.711
101353.681
101353.6529
101353.6266
101353.6022
101353.5797
101353.5592
101353.5405
101353.5237
101353.5089
101353.496
101353.4849
101798.049
101789.1765
101771.3712
101748.6495
101723.9728
101699.2442
101675.5387
101653.3813
101632.9668
101614.3053
101597.3126
101581.8617
101567.8116
101555.0221
101543.3614
101532.709
101522.9568
101514.0084
101505.7785
101498.1919
101491.1825
101484.6919
101478.6685
101473.0671
101467.8476
101462.9743
101458.4159
101454.1443
101450.1345
101446.3644
101442.8139
101439.4653
101436.3025
101433.311
101430.4777
101427.7911
101425.2402
101422.8155
101420.5081
101418.31
101416.2139
101414.2131
101412.3014
101410.4731
101408.7232
101407.0469
101405.4397
101403.8977
101402.417
101400.9942
101399.6261
101398.3098
101397.0423
101395.8213
101394.6441
101393.5087
101392.413
101391.3549
101390.3327
101389.3446
101388.389
101387.4645
101386.5695
101385.7029
101384.8633
101384.0495
101383.2605
101382.4952
101381.7526
101381.0318
101380.3319
101379.652
101378.9914
101378.3493
101377.725
101377.1179
101376.5272
101375.9524
101375.393
101374.8482
101374.3177
101373.801
101373.2974
101372.8067
101372.3284
101371.862
101371.4072
101370.9636
101370.5308
101370.1085
101369.6963
101369.294
101368.9012
101368.5177
101368.1431
101367.7772
101367.4198
101367.0706
101366.7294
101366.3959
101366.07
101365.7514
101365.4399
101365.1353
101364.8375
101364.5462
101364.2613
101363.9827
101363.7101
101363.4434
101363.1825
101362.9273
101362.6775
101362.433
101362.1938
101361.9597
101361.7306
101361.5063
101361.2868
101361.0719
101360.8616
101360.6557
101360.4541
101360.2568
101360.0637
101359.8746
101359.6895
101359.5083
101359.3309
101359.1573
101358.9873
101358.8209
101358.658
101358.4986
101358.3425
101358.1898
101358.0404
101357.8941
101357.751
101357.6109
101357.4739
101357.3399
101357.2087
101357.0805
101356.955
101356.8324
101356.7124
101356.5952
101356.4805
101356.3685
101356.259
101356.152
101356.0476
101355.9455
101355.8458
101355.7486
101355.6536
101355.5609
101355.4705
101355.3824
101355.2964
101355.2127
101355.1311
101355.0516
101354.9742
101354.8988
101354.8255
101354.7543
101354.685
101354.6178
101354.5525
101354.4891
101354.4277
101354.3682
101354.3105
101354.2548
101354.2009
101354.1489
101354.0987
101354.0504
101354.0038
101353.9591
101353.9163
101353.8752
101353.8359
101353.7984
101353.7628
101353.7289
101353.6968
101353.6666
101353.6382
101353.6116
101353.5868
101353.5638
101353.5427
101353.5234
101353.506
101353.4904
101353.4766
101353.4646
101740.4473
101734.6346
101722.7632
101706.9361
101688.936
101670.124
101651.4206
101633.3892
101616.3376
101600.4058
101585.6296
101571.984
101559.4108
101547.836
101537.18
101527.3633
101518.31
101509.9492
101502.2162
101495.0519
101488.403
101482.2216
101476.4648
101471.0941
101466.075
101461.3767
101456.9714
101452.8344
101448.9435
101445.2784
101441.8213
101438.5557
101435.4671
101432.542
101429.7685
101427.1355
101424.6331
101422.2522
101419.9846
101417.8226
101415.7593
101413.7885
101411.9042
101410.101
101408.3741
101406.719
101405.1312
101403.6071
101402.143
101400.7356
101399.3817
101398.0784
101396.8232
101395.6135
101394.4469
101393.3214
101392.2348
101391.1853
101390.1711
101389.1905
101388.242
101387.3241
101386.4354
101385.5745
101384.7404
101383.9318
101383.1477
101382.387
101381.6487
101380.932
101380.2359
101379.5597
101378.9025
101378.2637
101377.6426
101377.0383
101376.4505
101375.8784
101375.3214
101374.7791
101374.2509
101373.7363
101373.2349
101372.7461
101372.2697
101371.8051
101371.352
101370.91
101370.4788
101370.058
101369.6473
101369.2463
101368.8548
101368.4726
101368.0992
101367.7345
101367.3782
101367.0301
101366.6899
101366.3574
101366.0324
101365.7147
101365.4041
101365.1003
101364.8033
101364.5128
101364.2287
101363.9508
101363.6789
101363.4129
101363.1526
101362.898
101362.6488
101362.4049
101362.1663
101361.9327
101361.7041
101361.4803
101361.2613
101361.0469
101360.837
101360.6315
101360.4304
101360.2335
101360.0407
101359.852
101359.6673
101359.4865
101359.3094
101359.1361
101358.9664
101358.8004
101358.6378
101358.4787
101358.3229
101358.1705
101358.0213
101357.8753
101357.7324
101357.5926
101357.4558
101357.322
101357.1911
101357.063
101356.9378
101356.8153
101356.6956
101356.5785
101356.464
101356.3522
101356.2428
101356.136
101356.0317
101355.9298
101355.8303
101355.7331
101355.6383
101355.5457
101355.4555
101355.3674
101355.2816
101355.1979
101355.1164
101355.0369
101354.9596
101354.8844
101354.8111
101354.7399
101354.6707
101354.6035
101354.5383
101354.4749
101354.4135
101354.354
101354.2964
101354.2406
101354.1867
101354.1347
101354.0844
101354.036
101353.9894
101353.9446
101353.9016
101353.8604
101353.821
101353.7834
101353.7475
101353.7134
101353.6811
101353.6506
101353.6218
101353.5948
101353.5696
101353.5462
101353.5245
101353.5046
101353.4865
101353.4702
101353.4555
101353.4426
101695.9255
101691.9223
101683.6156
101672.2055
101658.786
101644.2946
101629.4487
101614.7504
101600.5248
101586.9639
101574.1671
101562.1719
101550.9761
101540.5536
101530.8645
101521.8622
101513.4976
101505.7218
101498.4875
101491.7503
101485.4686
101479.6042
101474.122
101468.9903
101464.1798
101459.6643
101455.4197
101451.4245
101447.6589
101444.1052
101440.7471
101437.57
101434.5606
101431.7066
101428.9969
101426.4216
101423.9713
101421.6376
101419.4128
101417.2899
101415.2622
101413.3238
101411.4691
101409.6932
101407.9914
101406.3592
101404.7926
101403.2881
101401.842
101400.4512
101399.1128
101397.824
101396.5821
101395.3848
101394.2298
101393.115
101392.0385
101390.9984
101389.993
101389.0207
101388.0798
101387.1692
101386.2872
101385.4328
101384.6047
101383.8018
101383.023
101382.2673
101381.5338
101380.8216
101380.1298
101379.4576
101378.8043
101378.1691
101377.5513
101376.9504
101376.3656
101375.7964
101375.2422
101374.7026
101374.1769
101373.6647
101373.1656
101372.679
101372.2047
101371.7421
101371.2909
101370.8507
101370.4212
101370.0021
101369.5929
101369.1935
101368.8035
101368.4226
101368.0506
101367.6872
101367.3321
101366.9852
101366.6461
101366.3147
101365.9907
101365.674
101365.3644
101365.0616
101364.7654
101364.4758
101364.1925
101363.9154
101363.6443
101363.379
101363.1195
101362.8655
101362.617
101362.3737
101362.1357
101361.9027
101361.6747
101361.4515
101361.233
101361.0191
101360.8097
101360.6047
101360.4041
101360.2076
101360.0153
101359.827
101359.6427
101359.4622
101359.2856
101359.1126
101358.9433
101358.7776
101358.6154
101358.4566
101358.3011
101358.149
101358.0001
101357.8544
101357.7118
101357.5722
101357.4357
101357.3021
101357.1715
101357.0436
101356.9186
101356.7964
101356.6768
101356.5599
101356.4457
101356.334
101356.2249
101356.1182
101356.0141
101355.9123
101355.8129
101355.7159
101355.6212
101355.5288
101355.4387
101355.3508
101355.265
101355.1815
101355.1
101355.0207
101354.9435
101354.8683
101354.7952
101354.724
101354.6549
101354.5877
101354.5225
101354.4592
101354.3978
101354.3383
101354.2807
101354.2249
101354.171
101354.1189
101354.0686
101354.0201
101353.9735
101353.9286
101353.8855
101353.8441
101353.8045
101353.7667
101353.7307
101353.6963
101353.6637
101353.6329
101353.6038
101353.5764
101353.5508
101353.5269
101353.5047
101353.4842
101353.4654
101353.4483
101353.4328
101353.419
101660.4122
101657.5358
101651.4937
101643.0178
101632.7989
101621.4792
101609.596
101597.5632
101585.6784
101574.1426
101563.0818
101552.5673
101542.6318
101533.2816
101524.5059
101516.283
101508.5851
101501.3812
101494.6391
101488.3266
101482.4128
101476.8681
101471.6646
101466.7766
101462.1799
101457.8525
101453.7741
101449.9259
101446.2909
101442.8534
101439.5991
101436.5149
101433.5888
101430.8097
101428.1677
101425.6534
101423.2584
101420.9749
101418.7958
101416.7144
101414.7246
101412.8209
101410.9981
101409.2514
101407.5763
101405.9688
101404.4251
101402.9415
101401.5149
101400.1422
101398.8204
101397.5471
101396.3196
101395.1357
101393.9932
101392.8901
101391.8245
101390.7946
101389.7987
101388.8353
101387.9029
101387.0001
101386.1255
101385.2781
101384.4565
101383.6598
101382.8868
101382.1366
101381.4083
101380.7009
101380.0137
101379.3459
101378.6968
101378.0655
101377.4515
101376.8541
101376.2727
101375.7067
101375.1556
101374.6188
101374.0959
101373.5863
101373.0897
101372.6055
101372.1334
101371.673
101371.2239
101370.7857
101370.3581
101369.9408
101369.5334
101369.1356
101368.7472
101368.3678
101367.9973
101367.6353
101367.2815
101366.9359
101366.5981
101366.2678
101365.945
101365.6294
101365.3208
101365.019
101364.7239
101364.4352
101364.1528
101363.8765
101363.6063
101363.3418
101363.083
101362.8298
101362.582
101362.3395
101362.1021
101361.8698
101361.6424
101361.4198
101361.2019
101360.9886
101360.7797
101360.5753
101360.3752
101360.1792
101359.9874
101359.7995
101359.6157
101359.4356
101359.2594
101359.0869
101358.918
101358.7526
101358.5907
101358.4323
101358.2772
101358.1254
101357.9768
101357.8314
101357.6891
101357.5499
101357.4136
101357.2803
101357.1499
101357.0223
101356.8976
101356.7756
101356.6562
101356.5396
101356.4255
101356.3141
101356.2051
101356.0987
101355.9947
101355.8931
101355.7939
101355.6971
101355.6026
101355.5103
101355.4203
101355.3325
101355.2469
101355.1634
101355.0821
101355.0029
101354.9258
101354.8507
101354.7776
101354.7066
101354.6375
101354.5704
101354.5052
101354.4419
101354.3805
101354.3211
101354.2634
101354.2077
101354.1537
101354.1016
101354.0513
101354.0027
101353.956
101353.911
101353.8678
101353.8263
101353.7866
101353.7485
101353.7123
101353.6777
101353.6448
101353.6137
101353.5842
101353.5565
101353.5304
101353.506
101353.4832
101353.4622
101353.4427
101353.4249
101353.4086
101353.3939
101631.3716
101629.2318
101624.6959
101618.235
101610.2991
101601.3313
101591.7286
101581.8193
101571.8583
101562.0335
101552.4759
101543.2716
101534.4726
101526.1057
101518.1798
101510.6917
101503.6297
101496.977
101490.7134
101484.8176
101479.2673
101474.0405
101469.1159
101464.4731
101460.0927
101455.9565
101452.0476
101448.3501
101444.8493
101441.5318
101438.3849
101435.397
101432.5576
101429.8567
101427.2853
101424.835
101422.4981
101420.2674
101418.1363
101416.0987
101414.1491
101412.2821
101410.493
101408.7772
101407.1306
101405.5494