/*--------------------------------*- C++ -*----------------------------------*\
| =========                 |                                                 |
| \\      /  F ield         | OpenFOAM: The Open Source CFD Toolbox           |
|  \\    /   O peration     | Version:  v2106                                 |
|   \\  /    A nd           | Website:  www.openfoam.com                      |
|    \\/     M anipulation  |                                                 |
\*---------------------------------------------------------------------------*/
FoamFile
{
    version     2.0;
    format      ascii;
    arch        "LSB;label=32;scalar=64";
    class       volVectorField;
    location    "1e-06/fluid";
    object      U;
}
// * * * * * * * * * * * * * * * * * * * * * * * * * * * * * * * * * * * * * //

dimensions      [0 1 -1 0 0 0 0];

internalField   nonuniform List<vector> 
80000
(
(-2.257472205 0.3403595782 -3.102278563e-20)
(-0.0118802359 -0.002732121958 -6.056297928e-20)
(0.0003352141582 -0.003971687569 2.552749871e-21)
(0.003779224297 -0.001147123557 8.274249406e-21)
(0.004013281925 -0.0001829139942 8.037028753e-24)
(0.003387836525 4.74223382e-05 8.748788549e-21)
(0.002737844739 9.071373448e-05 9.077772942e-25)
(0.002208945345 8.675837325e-05 -5.705035216e-21)
(0.001800647101 7.293154797e-05 4.602565544e-21)
(0.001487462363 5.91250729e-05 3.84350116e-21)
(0.001245250176 4.757438187e-05 1.689375965e-24)
(0.001055498253 3.840537607e-05 -5.084895659e-23)
(0.0009047634368 3.123623209e-05 -1.102919571e-24)
(0.0007833919132 2.563481107e-05 1.084089131e-26)
(0.0006844197061 2.123466306e-05 2.660073513e-23)
(0.0006027695455 1.775045892e-05 1.970417932e-26)
(0.0005346918656 1.496667687e-05 1.868515699e-23)
(0.0004773803508 1.272203013e-05 7.862031736e-27)
(0.0004287069483 1.089577621e-05 6.317334754e-30)
(0.0003870376282 9.39708754e-06 -7.640922636e-28)
(0.0003511028514 8.157145272e-06 -4.222405422e-25)
(0.0003199053604 7.123382331e-06 -3.695502305e-25)
(0.000292653727 6.25529629e-06 4.381707371e-24)
(0.0002687138625 5.52141472e-06 7.131382082e-24)
(0.000247573227 4.897071879e-06 -2.922678399e-25)
(0.0002288141029 4.362781999e-06 5.349266639e-24)
(0.0002120934363 3.903028323e-06 -2.538662561e-25)
(0.0001971274669 3.505364403e-06 -2.357292039e-25)
(0.000183679906 3.159734874e-06 4.079918781e-24)
(0.0001715527607 2.857960574e-06 1.638240471e-24)
(0.000160579154 2.593346103e-06 1.869579923e-28)
(0.0001506176602 2.360378009e-06 1.326964681e-27)
(0.0001415478048 2.154490067e-06 2.781379364e-24)
(0.0001332664609 1.971879889e-06 -1.271818647e-24)
(0.0001256849449 1.809364775e-06 1.451135007e-25)
(0.0001187266629 1.664267655e-06 3.069050693e-22)
(0.0001123251912 1.534326296e-06 1.416576654e-25)
(0.0001064227019 1.417620546e-06 2.718959486e-27)
(0.0001009686659 1.312513753e-06 6.51166436e-30)
(9.591877664e-05 1.217605295e-06 -1.201090187e-28)
(9.123405524e-05 1.131691983e-06 -1.064010634e-25)
(8.688010138e-05 1.053736434e-06 -2.245834479e-22)
(8.282646411e-05 9.828411304e-07 4.338013207e-25)
(7.904611106e-05 9.182269525e-07 -2.05327039e-22)
(7.551497889e-05 8.592154297e-07 -9.418535483e-26)
(7.221159107e-05 8.052139196e-07 1.03963033e-24)
(6.911673183e-05 7.557032532e-07 4.826687662e-28)
(6.62131669e-05 7.102273415e-07 4.89709273e-31)
(6.348540368e-05 6.683844428e-07 -1.709698168e-28)
(6.091948448e-05 6.298197706e-07 -7.329300244e-26)
(5.850280789e-05 5.942192352e-07 4.518262712e-25)
(5.622397382e-05 5.613040999e-07 1.446128641e-22)
(5.407264878e-05 5.308264506e-07 6.718812051e-26)
(5.20394485e-05 5.025652854e-07 3.245459439e-25)
(5.011583527e-05 4.763231841e-07 1.184310634e-29)
(4.8294028e-05 4.519234171e-07 -5.253602078e-25)
(4.656692327e-05 4.292074755e-07 -1.347131258e-28)
(4.492802574e-05 4.080329084e-07 3.619295234e-28)
(4.337138679e-05 3.882714661e-07 5.536830987e-25)
(4.189155032e-05 3.698074718e-07 2.999215181e-28)
(4.048350459e-05 3.525364161e-07 -4.743772502e-26)
(3.914263959e-05 3.363637092e-07 -1.007010204e-22)
(3.786470901e-05 3.212036156e-07 1.607056371e-25)
(3.664579639e-05 3.069782884e-07 4.296397354e-29)
(3.548228489e-05 2.936169507e-07 1.716012053e-28)
(3.437083018e-05 2.81055147e-07 3.62867579e-25)
(3.330833627e-05 2.692341061e-07 1.688823665e-28)
(3.229193364e-05 2.581001551e-07 2.099270951e-31)
(3.131895972e-05 2.476042211e-07 -7.986417262e-29)
(3.038694121e-05 2.377013712e-07 -3.665440694e-26)
(2.949357821e-05 2.283504167e-07 3.503773129e-26)
(2.863672981e-05 2.195135485e-07 7.402517936e-23)
(2.781440111e-05 2.111560274e-07 3.454790764e-26)
(2.70247314e-05 2.032458874e-07 2.622301686e-25)
(2.626598353e-05 1.957536903e-07 2.529221984e-25)
(2.553653415e-05 1.886522857e-07 1.17953926e-28)
(2.48348649e-05 1.819166181e-07 1.069640477e-28)
(2.415955438e-05 1.755235298e-07 2.265436137e-25)
(2.350927078e-05 1.694516047e-07 -2.182685831e-25)
(2.288276524e-05 1.636810084e-07 -1.273121914e-28)
(2.227886566e-05 1.581933662e-07 -2.633579093e-26)
(2.169647119e-05 1.529716236e-07 -5.595971806e-23)
(2.113454703e-05 1.47999952e-07 1.650660218e-25)
(2.059211974e-05 1.432636349e-07 -2.112602279e-29)
(2.006827296e-05 1.387489901e-07 -1.79072699e-25)
(1.95621434e-05 1.344432722e-07 1.103375447e-25)
(1.907291723e-05 1.30334613e-07 -2.252402107e-26)
(1.859982668e-05 1.26411938e-07 -4.805758279e-23)
(1.814214698e-05 1.226649186e-07 -2.235382572e-26)
(1.769919345e-05 1.190839028e-07 1.235573779e-28)
(1.727031896e-05 1.156598744e-07 -1.489637168e-25)
(1.685491136e-05 1.123843924e-07 1.449885279e-25)
(1.645239135e-05 1.092495647e-07 -1.988566772e-26)
(1.606221031e-05 1.062479896e-07 -1.371948055e-25)
(1.56838484e-05 1.033727356e-07 1.887782044e-26)
(1.531681275e-05 1.006172955e-07 1.217198764e-30)
(1.496063581e-05 9.797556763e-08 -1.80513008e-26)
(1.461487379e-05 9.544181433e-08 -8.692326362e-29)
(1.427910525e-05 9.301065087e-08 -3.41404132e-26)
(1.395292971e-05 9.067700494e-08 -3.595913807e-23)
(1.363596646e-05 8.843610936e-08 3.528889628e-23)
(1.332785336e-05 8.628347449e-08 -9.496664821e-26)
(1.302824578e-05 8.421487035e-08 -1.577330201e-26)
(1.27368156e-05 8.222630746e-08 1.915255046e-28)
(1.245325023e-05 8.031403053e-08 -3.227987498e-23)
(1.217725177e-05 7.847448695e-08 1.417273867e-26)
(1.190853618e-05 7.670432966e-08 3.078320278e-23)
(1.164683247e-05 7.500039101e-08 -1.353538002e-26)
(1.139188203e-05 7.335968406e-08 -2.943392168e-23)
(1.114343795e-05 7.177937787e-08 3.23800645e-26)
(1.090126436e-05 7.025680227e-08 2.808871664e-23)
(1.066513586e-05 6.878942276e-08 4.45826131e-26)
(1.043483693e-05 6.73748451e-08 -1.261269989e-26)
(1.021016145e-05 6.601079696e-08 -2.861103221e-29)
(9.990912188e-06 6.469513214e-08 2.968037805e-26)
(9.776900349e-06 6.34258093e-08 2.914164534e-26)
(9.56794512e-06 6.220089812e-08 1.158553811e-26)
(9.36387328e-06 6.101856172e-08 6.745318563e-26)
(9.164518799e-06 5.987706518e-08 -1.105359418e-26)
(8.969722486e-06 5.877475327e-08 2.709412142e-26)
(8.779331649e-06 5.771006309e-08 1.059925818e-26)
(8.593199765e-06 5.668150318e-08 -1.03622638e-26)
(8.411186177e-06 5.568766282e-08 6.168241929e-26)
(8.233155801e-06 5.472719884e-08 -9.929528997e-27)
(8.058978858e-06 5.379883684e-08 9.731906637e-27)
(7.888530619e-06 5.290136274e-08 2.462536875e-26)
(7.721691153e-06 5.203362889e-08 2.42485124e-26)
(7.558345105e-06 5.119453942e-08 2.930056565e-29)
(7.398381467e-06 5.038305813e-08 6.504199056e-26)
(7.24169337e-06 4.959819484e-08 -8.749554341e-27)
(7.088177893e-06 4.883901632e-08 -8.579620085e-27)
(6.937735873e-06 4.81046286e-08 -1.499349093e-29)
(6.790271721e-06 4.739419177e-08 2.236589908e-26)
(6.645693259e-06 4.670690174e-08 -8.016703875e-27)
(6.50391155e-06 4.604200306e-08 5.943845319e-26)
(6.364840745e-06 4.53987739e-08 1.507337487e-29)
(6.228397934e-06 4.477653661e-08 -7.526710352e-27)
(6.094503013e-06 4.41746458e-08 2.112483106e-26)
(5.963078534e-06 4.359249739e-08 1.387975486e-26)
(5.834049585e-06 4.302951824e-08 -1.502502659e-23)
(5.707343661e-06 4.248517227e-08 1.47668229e-23)
(5.582890539e-06 4.195895362e-08 1.52733858e-28)
(5.460622167e-06 4.145039264e-08 6.609514718e-27)
(5.340472554e-06 4.095904785e-08 1.997781824e-26)
(5.22237765e-06 4.04845125e-08 -6.307393098e-27)
(5.106275252e-06 4.002640877e-08 4.549527247e-26)
(4.99210489e-06 3.958439302e-08 6.051659049e-27)
(4.879807732e-06 3.915814676e-08 -5.888941668e-27)
(4.769326489e-06 3.8747389e-08 1.923445394e-26)
(4.660605305e-06 3.835186554e-08 1.911929601e-26)
(4.553589672e-06 3.797135704e-08 2.603548137e-29)
(4.448226332e-06 3.760567301e-08 4.855120287e-26)
(4.344463177e-06 3.725465965e-08 -5.247134793e-27)
(4.242249159e-06 3.691819229e-08 -5.146253871e-27)
(4.141534193e-06 3.659618596e-08 -3.084197897e-30)
(4.04226906e-06 3.628858846e-08 1.854747457e-26)
(3.94440531e-06 3.599538653e-08 4.170528926e-26)
(3.847895164e-06 3.571660749e-08 1.194444362e-29)
(3.752691402e-06 3.54523204e-08 1.539160186e-29)
(3.658747266e-06 3.520263846e-08 4.103874274e-26)
(3.566016346e-06 3.496772271e-08 4.085307244e-26)
(3.474452464e-06 3.47477845e-08 4.240275941e-27)
(3.384009553e-06 3.454309086e-08 4.049171185e-26)
(3.294641527e-06 3.435396931e-08 -1.194886003e-26)
(3.206302143e-06 3.418080953e-08 4.023636055e-26)
(3.118944854e-06 3.402407414e-08 3.152652392e-29)
(3.03252265e-06 3.388430259e-08 4.00953237e-26)
(2.946987881e-06 3.37621213e-08 4.00570223e-26)
(2.862292072e-06 3.365825112e-08 3.999118016e-26)
(2.77838571e-06 3.35735207e-08 -3.995347707e-26)
(2.695218018e-06 3.350887758e-08 4.000344623e-26)
(2.612736692e-06 3.346540321e-08 4.006309311e-26)
(2.530887612e-06 3.344433226e-08 3.311618996e-29)
(2.449614519e-06 3.344707348e-08 4.0217457e-26)
(2.368858643e-06 3.347523535e-08 -2.839929748e-27)
(2.288558271e-06 3.353065573e-08 4.052048598e-26)
(2.208648266e-06 3.361543906e-08 3.448244602e-29)
(2.129059494e-06 3.373200102e-08 4.099468992e-26)
(2.049718158e-06 3.388312508e-08 4.128824402e-26)
(1.970545014e-06 3.407202956e-08 2.403005934e-27)
(1.891454434e-06 3.430245221e-08 -2.273464794e-27)
(1.812353284e-06 3.457876018e-08 4.247020565e-26)
(1.733139564e-06 3.490608429e-08 4.299300439e-26)
(1.653700735e-06 3.529050175e-08 2.042658347e-27)
(1.57391165e-06 3.573926446e-08 4.42631661e-26)
(1.493631944e-06 3.626111512e-08 4.502514901e-26)
(1.412702706e-06 3.686670717e-08 -5.118334825e-27)
(1.330942167e-06 3.756919192e-08 1.630239548e-27)
(1.248139998e-06 3.838504507e-08 4.80753105e-26)
(1.164049593e-06 3.933527276e-08 4.940140067e-26)
(1.078377409e-06 4.044721477e-08 4.752592491e-29)
(9.907677399e-07 4.175735154e-08 5.391632224e-26)
(9.007802443e-07 4.331584618e-08 -3.234026216e-27)
(8.078553046e-07 4.519429862e-08 5.737110035e-26)
(7.112577809e-07 4.7499823e-08 5.604989766e-29)
(6.099794772e-07 5.040261938e-08 6.436822975e-26)
(5.025555776e-07 5.419512566e-08 6.938971395e-26)
(3.866822571e-07 5.943307195e-08 3.184080411e-29)
(2.582870944e-07 6.731315853e-08 4.875726871e-29)
(1.092561136e-07 8.079825589e-08 1.042067435e-25)
(1.070736539 2.528109569 -5.774751657e-18)
(0.443898574 -1.113237896 -1.178818318e-18)
(0.007487547669 -0.00511928435 2.937194864e-21)
(0.007775312545 -0.001080737234 -2.149751628e-20)
(0.005130091592 5.624382264e-05 -2.034929912e-23)
(0.00364729466 0.000305258549 -9.415059094e-21)
(0.002775969333 0.0003165861172 -1.063324516e-23)
(0.002192516751 0.0002714183875 -1.015999146e-23)
(0.001774671359 0.0002204494019 -4.723000584e-21)
(0.001463594619 0.0001764896583 -3.781702191e-21)
(0.001225789725 0.0001413560776 -1.648764218e-24)
(0.001040215845 0.0001139492592 -2.835883125e-21)
(0.000892883799 9.267040547e-05 -2.307189111e-21)
(0.0007741501605 7.608901457e-05 -1.85046337e-24)
(0.0006771905116 6.307281766e-05 -1.667436565e-21)
(0.0005970722913 5.276400395e-05 -1.389164924e-24)
(0.0005301652169 4.452248196e-05 -1.311689735e-21)
(0.0004737542189 3.787187112e-05 -5.967787369e-25)
(0.0004257790917 3.245638691e-05 -1.224408306e-27)
(0.0003846557834 2.800858249e-05 -4.329900849e-25)
(0.00034915155 2.432579899e-05 -9.020827012e-22)
(0.000318296332 2.12531462e-05 -7.946362371e-22)
(0.0002913189314 1.867119473e-05 7.399518277e-22)
(0.0002676004196 1.648705796e-05 2.132294481e-23)
(0.0002466397076 1.462787617e-05 -6.372316002e-22)
(0.0002280277976 1.303603699e-05 -5.894446668e-22)
(0.0002114283282 1.166562596e-05 -5.467906235e-22)
(0.0001965627174 1.047978162e-05 -5.078798961e-22)
(0.0001831987109 9.448701024e-06 1.175753136e-23)
(0.0001711414827 8.548126233e-06 -4.417671398e-22)
(0.00016022666 7.758187409e-06 -3.948830424e-25)
(0.0001503148106 7.062511918e-06 3.321627451e-27)
(0.0001412870564 6.447532004e-06 8.323214194e-24)
(0.0001330415562 5.901943463e-06 -3.963205827e-24)
(0.0001254906683 5.416279729e-06 1.433859017e-25)
(0.0001185586476 4.982574561e-06 3.063275525e-22)
(0.0001121797652 4.594093303e-06 1.440501463e-25)
(0.000106296765 4.245117431e-06 5.480819014e-24)
(0.0001008595905 3.930770932e-06 2.534561669e-27)
(9.582432768e-05 3.646879581e-06 -1.181667989e-28)
(9.115232487e-05 3.389856384e-06 -1.072786468e-25)
(8.680945573e-05 3.156607761e-06 -2.263335573e-22)
(8.276549959e-05 2.944456452e-06 1.892123689e-24)
(7.89936183e-05 2.751077792e-06 2.002633884e-22)
(7.546991296e-05 2.574446909e-06 9.368299822e-26)
(7.217304666e-05 2.412794692e-06 3.115635294e-24)
(6.908392264e-05 2.264571007e-06 1.445081941e-27)
(6.618540833e-05 2.128413796e-06 -8.501437357e-29)
(6.346209828e-05 2.003123069e-06 -7.443532326e-26)
(6.090010976e-05 1.887638895e-06 -1.573526155e-22)
(5.848690593e-05 1.781022755e-06 1.145387786e-24)
(5.62111425e-05 1.682441643e-06 1.430642209e-22)
(5.406253435e-05 1.591154533e-06 6.680345884e-26)
(5.203173915e-05 1.506500754e-06 9.720247076e-25)
(5.011025574e-05 1.427890038e-06 5.686733313e-26)
(4.829033488e-05 1.354793922e-06 1.229049289e-22)
(4.6564901e-05 1.286738354e-06 5.688322293e-26)
(4.492748312e-05 1.223297274e-06 5.425887811e-26)
(4.337215405e-05 1.164087039e-06 1.135129023e-22)
(4.189347646e-05 1.108761599e-06 5.260739201e-26)
(4.048645521e-05 1.057008266e-06 5.642134458e-28)
(3.914649487e-05 1.008544027e-06 1.254298338e-24)
(3.786936206e-05 9.631123209e-07 6.227908403e-25)
(3.665115174e-05 9.204801922e-07 2.913681416e-28)
(3.548825719e-05 8.804358124e-07 4.20289623e-28)
(3.43773431e-05 8.427862714e-07 1.046807125e-24)
(3.331532144e-05 8.073556461e-07 4.135987385e-28)
(3.229932982e-05 7.739832764e-07 -3.969118121e-29)
(3.132671201e-05 7.425222506e-07 -3.697613518e-26)
(3.039500037e-05 7.128380503e-07 -7.849652532e-23)
(2.950190005e-05 6.84807353e-07 4.40876454e-25)
(2.864527465e-05 6.583169552e-07 7.401273405e-23)
(2.782313331e-05 6.332628245e-07 3.443449812e-26)
(2.703361897e-05 6.095492425e-07 5.82028399e-28)
(2.627499771e-05 5.870880432e-07 7.89491857e-25)
(2.55456491e-05 5.657979215e-07 4.1765852e-28)
(2.484405742e-05 5.456038262e-07 3.210588105e-28)
(2.416880361e-05 5.264364007e-07 6.798618918e-25)
(2.351855799e-05 5.0823149e-07 2.998472139e-25)
(2.289207361e-05 4.909296881e-07 9.606070918e-29)
(2.228818011e-05 4.744759395e-07 8.62775365e-29)
(2.170577817e-05 4.588191633e-07 2.695244803e-25)
(2.114383441e-05 4.439119319e-07 5.477373098e-25)
(2.060137666e-05 4.2971016e-07 -1.282400612e-29)
(2.007748971e-05 4.161728454e-07 -5.135178015e-25)
(1.95713113e-05 4.0326181e-07 5.080423924e-23)
(1.908202853e-05 3.909414841e-07 2.39419715e-26)
(1.860887449e-05 3.791786907e-07 -4.487173057e-26)
(1.815112516e-05 3.679424727e-07 1.285691665e-28)
(1.770809659e-05 3.572039146e-07 4.609177839e-25)
(1.727914224e-05 3.469359878e-07 2.244000966e-25)
(1.686365057e-05 3.371134061e-07 3.950317872e-25)
(1.646104277e-05 3.27712506e-07 -4.251149849e-23)
(1.60707707e-05 3.187111145e-07 -4.123156798e-25)
(1.569231495e-05 3.100884503e-07 4.050702094e-23)
(1.532518302e-05 3.018250169e-07 6.9601817e-28)
(1.496890772e-05 2.939025182e-07 -3.862183681e-23)
(1.462304558e-05 2.863037635e-07 -3.529162046e-26)
(1.428717543e-05 2.790126033e-07 -3.688042591e-23)
(1.396089707e-05 2.720138437e-07 3.603748428e-23)
(1.364383002e-05 2.652931895e-07 3.542382136e-23)
(1.333561234e-05 2.588371811e-07 -3.013642269e-25)
(1.303589961e-05 2.526331383e-07 -3.365045906e-23)
(1.274436388e-05 2.466691082e-07 3.289711364e-23)
(1.246069271e-05 2.409338203e-07 -2.960502799e-25)
(1.218458836e-05 2.354166364e-07 3.146691665e-23)
(1.191576689e-05 2.30107512e-07 3.078800002e-23)
(1.165395745e-05 2.249969595e-07 -3.005444685e-23)
(1.139890154e-05 2.200760158e-07 -4.121693412e-26)
(1.115035232e-05 2.153362023e-07 -2.864421576e-23)
(1.090807402e-05 2.107695017e-07 2.78853755e-23)
(1.067184131e-05 2.063683243e-07 -2.743988325e-23)
(1.044143874e-05 2.021254856e-07 -2.697833988e-23)
(1.021666025e-05 1.980341794e-07 -2.467947322e-26)
(9.997308663e-06 1.940879617e-07 -2.570505791e-23)
(9.783195232e-06 1.902807181e-07 -2.514309107e-23)
(9.574139185e-06 1.86606655e-07 2.470264446e-23)
(9.369967341e-06 1.830602732e-07 -2.397293391e-23)
(9.170513703e-06 1.79636361e-07 -2.368315026e-23)
(8.975619109e-06 1.763299645e-07 -2.30664812e-23)
(8.785130894e-06 1.731363885e-07 2.266680331e-23)
(8.598902553e-06 1.70051168e-07 -2.220664044e-23)
(8.416793454e-06 1.670700688e-07 -2.155156793e-23)
(8.238668528e-06 1.641890638e-07 -2.127704011e-23)
(8.064398007e-06 1.614043312e-07 2.080721072e-23)
(7.893857177e-06 1.587122348e-07 -2.02834258e-23)
(7.726926119e-06 1.561093273e-07 -1.986382325e-23)
(7.563489484e-06 1.53592327e-07 -9.189832812e-27)
(7.403436272e-06 1.511581194e-07 1.863659752e-25)
(7.246659619e-06 1.488037452e-07 -1.872333812e-23)
(7.093056609e-06 1.465263972e-07 -1.830975463e-23)
(6.942528084e-06 1.443234035e-07 -1.674604072e-26)
(6.794978458e-06 1.421922373e-07 -1.746463563e-23)
(6.650315554e-06 1.40130492e-07 -1.718280588e-23)
(6.508450438e-06 1.381358964e-07 1.703379469e-25)
(6.369297264e-06 1.362062936e-07 -7.476223792e-27)
(6.232773122e-06 1.343396443e-07 -1.608873573e-23)
(6.098797909e-06 1.3253402e-07 -1.567955287e-23)
(5.967294179e-06 1.307876023e-07 -1.531956776e-23)
(5.838187025e-06 1.290986765e-07 2.999525944e-23)
(5.711403941e-06 1.274656327e-07 9.640662959e-26)
(5.586874706e-06 1.258869544e-07 -1.440816011e-23)
(5.464531274e-06 1.243612299e-07 1.40992281e-23)
(5.344307656e-06 1.228871395e-07 -1.372235033e-23)
(5.226139809e-06 1.214634589e-07 -1.350929465e-23)
(5.109965537e-06 1.200890582e-07 -1.304808643e-23)
(4.995724376e-06 1.187628991e-07 1.288966285e-23)
(4.883357503e-06 1.174840358e-07 -1.259942044e-23)
(4.77280764e-06 1.162516182e-07 -1.226244309e-23)
(4.664018946e-06 1.150648848e-07 -1.197648429e-23)
(4.556936925e-06 1.13923175e-07 -5.533844265e-27)
(4.451508336e-06 1.128259188e-07 1.403980427e-25)
(4.347681094e-06 1.117726497e-07 -1.123317735e-23)
(4.245404171e-06 1.107629982e-07 -1.096920333e-23)
(4.144627509e-06 1.097967016e-07 -1.001317453e-26)
(4.045301919e-06 1.088736048e-07 -1.038162085e-23)
(3.947378985e-06 1.079936677e-07 -1.005969719e-23)
(3.850810969e-06 1.071569679e-07 -9.368599933e-27)
(3.755550692e-06 1.063637083e-07 -4.396970171e-27)
(3.661551447e-06 1.056142274e-07 -9.324019567e-24)
(3.568766882e-06 1.049090023e-07 -9.08117592e-24)
(3.477150883e-06 1.042486667e-07 8.971589762e-24)
(3.386657457e-06 1.036340145e-07 -8.624315803e-24)
(3.297240598e-06 1.030660219e-07 -2.556168062e-23)
(3.208854158e-06 1.025458545e-07 -8.16655998e-24)
(3.1214517e-06 1.020748915e-07 -7.448300265e-27)
(3.034986333e-06 1.016547424e-07 -7.710256667e-24)
(2.949410546e-06 1.012872788e-07 -7.493226531e-24)
(2.864676023e-06 1.009746504e-07 -7.271431623e-24)
(2.780733433e-06 1.007193305e-07 7.044696179e-24)
(2.697532207e-06 1.005241463e-07 -6.836520645e-24)
(2.615020281e-06 1.003923253e-07 -6.626976698e-24)
(2.533143813e-06 1.003275495e-07 -6.018629673e-27)
(2.451846868e-06 1.003340194e-07 -6.205342677e-24)
(2.371071052e-06 1.004165297e-07 -6.134768681e-24)
(2.290755092e-06 1.005805574e-07 -5.788981048e-24)
(2.210834372e-06 1.008323697e-07 -5.236172858e-27)
(2.131240374e-06 1.011791607e-07 -5.375811905e-24)
(2.051900038e-06 1.016292104e-07 -5.168018845e-24)
(1.972735004e-06 1.021920878e-07 5.089957817e-24)
(1.893660714e-06 1.028788983e-07 -4.894818501e-24)
(1.814585345e-06 1.037026034e-07 -4.556680753e-24)
(1.735408514e-06 1.046784184e-07 -4.346730322e-24)
(1.656019706e-06 1.058243384e-07 4.272868218e-24)
(1.576296325e-06 1.071618065e-07 -3.932245423e-24)
(1.496101284e-06 1.087166249e-07 -3.732182872e-24)
(1.415279936e-06 1.105201651e-07 -1.096865171e-23)
(1.333656176e-06 1.126110456e-07 3.437653083e-24)
(1.251027339e-06 1.150374806e-07 -3.082035417e-24)
(1.167157469e-06 1.178606689e-07 -2.863494947e-24)
(1.081768237e-06 1.211598059e-07 -1.265063714e-27)
(9.945264488e-07 1.250397505e-07 1.581610567e-25)
(9.050265031e-07 1.296431792e-07 -7.014869839e-24)
(8.127652577e-07 1.351707094e-07 -1.927748546e-24)
(7.171055684e-07 1.419159127e-07 -1.559363555e-27)
(6.172237814e-07 1.503298391e-07 -1.400423634e-24)
(5.120395949e-07 1.611478425e-07 -1.114943078e-24)
(4.001522055e-07 1.756570792e-07 -1.031784674e-27)
(2.799156542e-07 1.96303377e-07 -4.508303027e-29)
(1.505705879e-07 2.281388294e-07 -9.413415764e-26)
(0.09468198955 1.557887867 -1.178642929e-19)
(0.217067352 0.3023129528 4.9378008e-19)
(0.008529217519 0.004178650817 -2.575048689e-21)
(0.008054694099 0.001569742099 -3.960962081e-20)
(0.005304035591 0.001033829857 -1.371511389e-20)
(0.003629317084 0.0007780745102 -1.743162456e-23)
(0.002702078143 0.0006018155862 -1.396185452e-20)
(0.002114458068 0.00046837894 -1.092520229e-20)
(0.001707811187 0.0003665905802 4.401572108e-21)
(0.001410219928 0.0002892259212 -3.453693752e-21)
(0.001184230501 0.000230417548 3.05674064e-21)
(0.001008048004 0.0001855057557 -2.842743802e-21)
(0.0008679148465 0.0001509416472 -1.35279192e-24)
(0.0007546342492 0.00012409127 6.271800265e-26)
(0.0006618024095 0.0001030223739 1.322077073e-22)
(0.0005848238752 8.632098665e-05 1.039030131e-25)
(0.0005203228358 7.294920829e-05 9.355339475e-23)
(0.0004657717785 6.214040587e-05 -5.075479887e-25)
(0.0004192476584 5.332373693e-05 -4.737893726e-25)
(0.0003792667507 4.607034435e-05 -1.498478857e-27)
(0.000344670023 4.005503452e-05 -4.006957112e-25)
(0.0003145419353 3.502892419e-05 4.484710543e-23)
(0.0002881519312 3.079978569e-05 7.254414708e-25)
(0.0002649116318 2.721783893e-05 3.514563825e-23)
(0.0002443431091 2.416538236e-05 -2.824295548e-25)
(0.0002260550732 2.154917568e-05 -5.162750799e-25)
(0.0002097248123 1.929478429e-05 -5.418817683e-22)
(0.0001950843506 1.734235074e-05 -4.764724441e-25)
(0.0001819097389 1.564340542e-05 2.041125162e-23)
(0.0001700127019 1.415844158e-05 4.47807079e-22)
(0.0001592340706 1.285505693e-05 -4.110250034e-22)
(0.0001494385739 1.170651898e-05 -1.82514495e-25)
(0.000140510683 1.069064934e-05 1.36419219e-23)
(0.0001323512685 9.788950114e-06 -3.417995654e-22)
(0.000124874897 8.985915227e-06 -1.574036014e-25)
(0.0001180076318 8.268484225e-06 1.798816849e-27)
(0.0001116852327 7.625606439e-06 4.316665001e-27)
(0.0001058516754 7.047891147e-06 9.094830106e-24)
(0.0001004579269 6.527325271e-06 4.332308397e-27)
(9.546092807e-05 6.057044375e-06 1.188164726e-30)
(9.08227444e-05 5.631145914e-06 -3.681173455e-27)
(8.650985335e-05 5.244536264e-06 -6.976834422e-24)
(8.249254478e-05 4.89280481e-06 6.214625509e-24)
(7.874441392e-05 4.572119835e-06 -2.091672352e-22)
(7.524193099e-05 4.279142124e-06 -9.403976611e-26)
(7.196407469e-05 4.010952905e-06 5.178956719e-24)
(6.889201888e-05 3.764993578e-06 2.402724104e-27)
(6.600886391e-05 3.539015068e-06 -8.582664083e-29)
(6.329940534e-05 3.331035152e-06 -7.632663714e-26)
(6.074993445e-05 3.139302329e-06 -1.610847599e-22)
(5.834806548e-05 2.962265195e-06 3.676655707e-24)
(5.608258565e-05 2.798546326e-06 -3.611567736e-24)
(5.394332464e-05 2.646920007e-06 -1.676338642e-27)
(5.192104058e-05 2.506293124e-06 -9.94514832e-28)
(5.000732041e-05 2.375688774e-06 -3.126622953e-24)
(4.81944924e-05 2.254232126e-06 -1.273187429e-22)
(4.647554924e-05 2.141138224e-06 -5.811869633e-26)
(4.484408029e-05 2.035701414e-06 1.367843241e-24)
(4.329421172e-05 1.937286169e-06 2.489894565e-27)
(4.182055359e-05 1.845319109e-06 4.488533136e-30)
(4.041815283e-05 1.759282036e-06 2.448947172e-30)
(3.908245151e-05 1.678705847e-06 1.53249266e-27)
(3.780924967e-05 1.603165209e-06 2.069755041e-24)
(3.659467217e-05 1.532273861e-06 9.157660245e-28)
(3.543513907e-05 1.465680514e-06 -4.091014202e-26)
(3.432733904e-05 1.403065204e-06 -8.684045315e-23)
(3.326820563e-05 1.344136101e-06 -4.029119359e-26)
(3.225489585e-05 1.288626656e-06 -4.501873814e-29)
(3.128477095e-05 1.236293094e-06 -1.588308457e-28)
(3.035537908e-05 1.186912177e-06 -7.259998204e-26)
(2.946443965e-05 1.140279221e-06 1.471141364e-24)
(2.860982918e-05 1.096206316e-06 3.528075395e-26)
(2.778956852e-05 1.054520752e-06 1.070098934e-28)
(2.700181122e-05 1.015063602e-06 3.221809428e-26)
(2.624483303e-05 9.776884638e-07 6.841000647e-23)
(2.55170223e-05 9.422603166e-07 3.178882483e-26)
(2.481687131e-05 9.086545117e-07 5.379308211e-28)
(2.414296831e-05 8.767558438e-07 1.103688865e-24)
(2.349399029e-05 8.464577439e-07 -6.018516442e-23)
(2.286869641e-05 8.176615172e-07 -2.806857896e-26)
(2.226592188e-05 7.902756901e-07 -5.177874757e-28)
(2.168457251e-05 7.642153877e-07 -1.011693407e-24)
(2.11236196e-05 7.394017984e-07 -5.362403529e-23)
(2.058209531e-05 7.157616583e-07 -2.549698783e-26)
(2.005908838e-05 6.9322682e-07 -9.431192375e-25)
(1.955374021e-05 6.717338297e-07 8.90773071e-25)
(1.906524125e-05 6.512235626e-07 8.186436716e-25)
(1.85928277e-05 6.31640869e-07 -4.79491929e-23)
(1.813577839e-05 6.129342854e-07 -2.221015408e-26)
(1.769341203e-05 5.950557347e-07 9.849149882e-28)
(1.72650845e-05 5.779602801e-07 7.049679273e-25)
(1.685018653e-05 5.616058783e-07 -4.27910409e-23)
(1.644814141e-05 5.459531787e-07 -4.021446238e-26)
(1.605840294e-05 5.309653099e-07 -7.240773529e-25)
(1.56804535e-05 5.166077144e-07 -4.047693735e-23)
(1.531380228e-05 5.028479658e-07 -1.064343699e-27)
(1.495798362e-05 4.896556332e-07 7.720517065e-23)
(1.461255552e-05 4.770021271e-07 1.819055109e-26)
(1.427709814e-05 4.648605799e-07 -1.713229458e-26)
(1.395121254e-05 4.532057203e-07 2.930136281e-25)
(1.363451941e-05 4.420137723e-07 -3.486125135e-23)
(1.332665789e-05 4.31262338e-07 6.821213127e-23)
(1.302728458e-05 4.209303269e-07 1.594861396e-26)
(1.273607248e-05 4.109978516e-07 1.517891417e-26)
(1.245271004e-05 4.014461577e-07 -5.180777186e-25)
(1.217690035e-05 3.922575445e-07 -3.143285854e-23)
(1.190836025e-05 3.83415302e-07 2.800833304e-26)
(1.164681961e-05 3.749036432e-07 6.011471918e-23)
(1.139202061e-05 3.667076515e-07 1.425693393e-26)
(1.114371707e-05 3.588132179e-07 2.179659685e-25)
(1.09016738e-05 3.512070008e-07 -4.530918728e-25)
(1.066566604e-05 3.43876367e-07 -2.733569017e-23)
(1.043547888e-05 3.368093641e-07 -2.539965318e-26)
(1.021090675e-05 3.299946619e-07 2.534195316e-29)
(9.991752946e-06 3.234215346e-07 1.967824313e-25)
(9.777829159e-06 3.170798061e-07 1.929592101e-25)
(9.568955038e-06 3.109598333e-07 4.610260232e-28)
(9.364957792e-06 3.050524655e-07 -2.378059858e-23)
(9.165671795e-06 2.993490232e-07 4.731943016e-23)
(8.970938237e-06 2.938412648e-07 2.009131568e-25)
(8.780604782e-06 2.885213718e-07 1.072484796e-26)
(8.594525242e-06 2.833819122e-07 3.170392879e-28)
(8.412559278e-06 2.784158373e-07 -2.1376491e-23)
(8.234572102e-06 2.73616442e-07 -1.994359266e-26)
(8.060434215e-06 2.689773655e-07 9.79046947e-27)
(7.890021154e-06 2.644925558e-07 1.612857694e-25)
(7.723213241e-06 2.601562707e-07 1.586704641e-25)
(7.559895354e-06 2.559630474e-07 2.139302104e-28)
(7.399956712e-06 2.519077007e-07 3.252783902e-25)
(7.243290661e-06 2.479853047e-07 8.55366822e-27)
(7.08979448e-06 2.441911828e-07 3.659370511e-23)
(6.939369201e-06 2.405208896e-07 1.709710476e-26)
(6.791919418e-06 2.369702122e-07 1.44794576e-25)
(6.647353129e-06 2.335351511e-07 8.219755109e-27)
(6.505581571e-06 2.302119164e-07 2.972904237e-25)
(6.366519051e-06 2.269969194e-07 1.523649173e-26)
(6.230082819e-06 2.238867642e-07 3.215639254e-23)
(6.096192922e-06 2.208782385e-07 1.502775668e-25)
(5.964772059e-06 2.179683113e-07 1.548558658e-25)
(5.835745463e-06 2.15154129e-07 4.522734155e-23)
(5.709040764e-06 2.124330074e-07 3.472405768e-26)
(5.584587878e-06 2.098024233e-07 2.88246601e-23)
(5.46231889e-06 2.072600213e-07 2.010752499e-26)
(5.342167938e-06 2.048036029e-07 1.25759497e-25)
(5.22407111e-06 2.024311286e-07 -1.237415633e-26)
(5.107966334e-06 2.001407126e-07 -1.293929236e-23)
(4.993793273e-06 1.979306235e-07 1.184794048e-26)
(4.881493232e-06 1.957992862e-07 2.520749883e-23)
(4.771009056e-06 1.937452803e-07 1.311264187e-25)
(4.662285032e-06 1.917673352e-07 1.18218291e-25)
(4.555266795e-06 1.898643451e-07 1.589802251e-28)
(4.449901236e-06 1.880353588e-07 2.427957311e-25)
(4.346136404e-06 1.862795934e-07 -5.162647256e-27)
(4.243921411e-06 1.845964281e-07 -5.151833704e-27)
(4.14320634e-06 1.829854204e-07 4.078189498e-29)
(4.043942156e-06 1.81446306e-07 1.123444608e-25)
(3.946080598e-06 1.799790113e-07 2.229879976e-25)
(3.849574089e-06 1.785836557e-07 -9.941596735e-24)
(3.75437563e-06 1.7726057e-07 -4.54969378e-27)
(3.660438696e-06 1.760103055e-07 2.229353777e-25)
(3.567717133e-06 1.748336478e-07 2.215343782e-25)
(3.476165041e-06 1.737316355e-07 2.910527314e-28)
(3.385736655e-06 1.72705581e-07 -8.532926836e-24)
(3.29638622e-06 1.717570858e-07 -1.704200638e-23)
(3.208067857e-06 1.708880782e-07 2.087950854e-25)
(3.120735425e-06 1.701008289e-07 1.878548738e-28)
(3.034342361e-06 1.693979956e-07 2.15155154e-25)
(2.948841519e-06 1.687826615e-07 2.110841509e-25)
(2.864184984e-06 1.682583761e-07 -7.18308969e-24)
(2.780323874e-06 1.678292126e-07 -2.166067885e-25)
(2.697208126e-06 1.674998339e-07 2.130162396e-25)
(2.614786246e-06 1.672755579e-07 2.129248056e-25)
(2.533005038e-06 1.671624513e-07 1.907231391e-28)
(2.45180931e-06 1.6716743e-07 2.071234989e-25)
(2.371141516e-06 1.672983805e-07 -1.224984048e-23)
(2.290941364e-06 1.675643061e-07 2.078642009e-25)
(2.211145378e-06 1.679755043e-07 1.913851619e-28)
(2.131686377e-06 1.685437792e-07 2.151517418e-25)
(2.052492877e-06 1.692827048e-07 2.161983739e-25)
(1.973488391e-06 1.70207944e-07 -4.504489395e-27)
(1.89459061e-06 1.713376493e-07 -9.785708392e-24)